{
    "mp-31053": {
        "formula": "Ag2S",
        "spacegroup": "P21",
        "formation_energy__eV": -0.276,
        "E_above_hull__eV": 0.0,
        "band_gap__eV": 1.3869999999999998,
        "has_bandstructure": true,
        "volume": 146.378,
        "Nsites": 6,
        "theoretical": true,
        "count": 14.0,
        "density__gm_per_cc": 5.622000000000001,
        "crystal_system": "monoclinic"
    },
    "mp-32669": {
        "formula": "Ag2S",
        "spacegroup": "Cmc21",
        "formation_energy__eV": -0.271,
        "E_above_hull__eV": 0.005,
        "band_gap__eV": 1.354,
        "has_bandstructure": true,
        "volume": 128.13299999999998,
        "Nsites": 6,
        "theoretical": true,
        "count": NaN,
        "density__gm_per_cc": 6.422999999999999,
        "crystal_system": "orthorhombic"
    },
    "mp-32884": {
        "formula": "Ag2S",
        "spacegroup": "C2/m",
        "formation_energy__eV": -0.26899999999999996,
        "E_above_hull__eV": 0.006999999999999999,
        "band_gap__eV": 1.305,
        "has_bandstructure": false,
        "volume": 129.092,
        "Nsites": 6,
        "theoretical": true,
        "count": NaN,
        "density__gm_per_cc": 6.375,
        "crystal_system": "monoclinic"
    },
    "mp-36216": {
        "formula": "Ag2S",
        "spacegroup": "Cmcm",
        "formation_energy__eV": -0.26899999999999996,
        "E_above_hull__eV": 0.006999999999999999,
        "band_gap__eV": 1.131,
        "has_bandstructure": true,
        "volume": 127.23100000000001,
        "Nsites": 6,
        "theoretical": true,
        "count": NaN,
        "density__gm_per_cc": 6.468,
        "crystal_system": "orthorhombic"
    },
    "mp-556225": {
        "formula": "Ag2S",
        "spacegroup": "P21/m",
        "formation_energy__eV": -0.268,
        "E_above_hull__eV": 0.008,
        "band_gap__eV": 1.097,
        "has_bandstructure": true,
        "volume": 126.536,
        "Nsites": 6,
        "theoretical": true,
        "count": NaN,
        "density__gm_per_cc": 6.504,
        "crystal_system": "monoclinic"
    },
    "mp-610517": {
        "formula": "Ag2S",
        "spacegroup": "P21/c",
        "formation_energy__eV": -0.252,
        "E_above_hull__eV": 0.024,
        "band_gap__eV": 0.934,
        "has_bandstructure": true,
        "volume": 246.58900000000003,
        "Nsites": 12,
        "theoretical": false,
        "count": NaN,
        "density__gm_per_cc": 6.675,
        "crystal_system": "monoclinic"
    },
    "mp-38511": {
        "formula": "Ag2S",
        "spacegroup": "Pc",
        "formation_energy__eV": -0.23399999999999999,
        "E_above_hull__eV": 0.042,
        "band_gap__eV": 0.233,
        "has_bandstructure": true,
        "volume": 125.395,
        "Nsites": 6,
        "theoretical": true,
        "count": NaN,
        "density__gm_per_cc": 6.563,
        "crystal_system": "monoclinic"
    },
    "mp-1095694": {
        "formula": "Ag2S",
        "spacegroup": "P212121",
        "formation_energy__eV": -0.228,
        "E_above_hull__eV": 0.049,
        "band_gap__eV": 0.013000000000000001,
        "has_bandstructure": true,
        "volume": 226.68099999999998,
        "Nsites": 12,
        "theoretical": false,
        "count": NaN,
        "density__gm_per_cc": 7.261,
        "crystal_system": "orthorhombic"
    },
    "mp-32868": {
        "formula": "Ag2S",
        "spacegroup": "P1",
        "formation_energy__eV": -0.22399999999999998,
        "E_above_hull__eV": 0.052000000000000005,
        "band_gap__eV": 0.605,
        "has_bandstructure": true,
        "volume": 194.757,
        "Nsites": 9,
        "theoretical": true,
        "count": NaN,
        "density__gm_per_cc": 6.337999999999999,
        "crystal_system": "triclinic"
    },
    "mp-1229090": {
        "formula": "Ag2S",
        "spacegroup": "Fm3m",
        "formation_energy__eV": -0.204,
        "E_above_hull__eV": 0.07200000000000001,
        "band_gap__eV": 0.036000000000000004,
        "has_bandstructure": true,
        "volume": 60.976000000000006,
        "Nsites": 3,
        "theoretical": true,
        "count": NaN,
        "density__gm_per_cc": 6.747999999999999,
        "crystal_system": "cubic"
    },
    "mp-560025": {
        "formula": "Ag2S",
        "spacegroup": "P21",
        "formation_energy__eV": -0.192,
        "E_above_hull__eV": 0.085,
        "band_gap__eV": 0.402,
        "has_bandstructure": true,
        "volume": 127.464,
        "Nsites": 6,
        "theoretical": true,
        "count": NaN,
        "density__gm_per_cc": 6.456,
        "crystal_system": "monoclinic"
    },
    "mp-32791": {
        "formula": "Ag2S",
        "spacegroup": "Cmce",
        "formation_energy__eV": -0.187,
        "E_above_hull__eV": 0.08900000000000001,
        "band_gap__eV": 0.001,
        "has_bandstructure": true,
        "volume": 117.633,
        "Nsites": 6,
        "theoretical": true,
        "count": NaN,
        "density__gm_per_cc": 6.996,
        "crystal_system": "orthorhombic"
    },
    "mp-1183254": {
        "formula": "Ag3S",
        "spacegroup": "P63/mmc",
        "formation_energy__eV": -0.061,
        "E_above_hull__eV": 0.146,
        "band_gap__eV": 0.0,
        "has_bandstructure": true,
        "volume": 144.455,
        "Nsites": 8,
        "theoretical": true,
        "count": NaN,
        "density__gm_per_cc": 8.177,
        "crystal_system": "hexagonal"
    },
    "mp-28963": {
        "formula": "Ag8S",
        "spacegroup": "F43m",
        "formation_energy__eV": 0.175,
        "E_above_hull__eV": 0.267,
        "band_gap__eV": 0.0,
        "has_bandstructure": true,
        "volume": 190.083,
        "Nsites": 9,
        "theoretical": true,
        "count": NaN,
        "density__gm_per_cc": 7.819,
        "crystal_system": "cubic"
    }
}