{
    "mp-471": {
        "formula": "CdAs2",
        "spacegroup": "I4122",
        "formation_energy__eV": -0.087,
        "E_above_hull__eV": 0.0,
        "band_gap__eV": 0.193,
        "has_bandstructure": true,
        "volume": 158.599,
        "Nsites": 6,
        "theoretical": false,
        "count": 9.0,
        "density__gm_per_cc": 5.492000000000001,
        "crystal_system": "tetragonal"
    },
    "mp-570634": {
        "formula": "Cd3As2",
        "spacegroup": "I41/acd",
        "formation_energy__eV": -0.10300000000000001,
        "E_above_hull__eV": 0.0,
        "band_gap__eV": 0.0,
        "has_bandstructure": true,
        "volume": 2164.547,
        "Nsites": 80,
        "theoretical": false,
        "count": NaN,
        "density__gm_per_cc": 5.979,
        "crystal_system": "tetragonal"
    },
    "mp-1372": {
        "formula": "Cd3As2",
        "spacegroup": "P42/nmc",
        "formation_energy__eV": -0.10099999999999999,
        "E_above_hull__eV": 0.002,
        "band_gap__eV": 0.002,
        "has_bandstructure": true,
        "volume": 1085.236,
        "Nsites": 40,
        "theoretical": false,
        "count": NaN,
        "density__gm_per_cc": 5.962000000000001,
        "crystal_system": "tetragonal"
    },
    "mp-7373": {
        "formula": "CdAs",
        "spacegroup": "Pbca",
        "formation_energy__eV": -0.081,
        "E_above_hull__eV": 0.016,
        "band_gap__eV": 0.278,
        "has_bandstructure": true,
        "volume": 398.726,
        "Nsites": 16,
        "theoretical": false,
        "count": NaN,
        "density__gm_per_cc": 6.2410000000000005,
        "crystal_system": "orthorhombic"
    },
    "mp-1201202": {
        "formula": "Cd3As2",
        "spacegroup": "P42/nbc",
        "formation_energy__eV": -0.08199999999999999,
        "E_above_hull__eV": 0.02,
        "band_gap__eV": 0.141,
        "has_bandstructure": false,
        "volume": 4370.124,
        "Nsites": 160,
        "theoretical": false,
        "count": NaN,
        "density__gm_per_cc": 5.922000000000001,
        "crystal_system": "tetragonal"
    },
    "mp-1199496": {
        "formula": "Cd3As2",
        "spacegroup": "I41/acd",
        "formation_energy__eV": -0.045,
        "E_above_hull__eV": 0.057999999999999996,
        "band_gap__eV": 0.0,
        "has_bandstructure": false,
        "volume": 2154.058,
        "Nsites": 80,
        "theoretical": false,
        "count": NaN,
        "density__gm_per_cc": 6.007999999999999,
        "crystal_system": "tetragonal"
    },
    "mp-10762": {
        "formula": "Cd3As2",
        "spacegroup": "Pn3m",
        "formation_energy__eV": 0.057999999999999996,
        "E_above_hull__eV": 0.161,
        "band_gap__eV": 0.0,
        "has_bandstructure": true,
        "volume": 272.07599999999996,
        "Nsites": 10,
        "theoretical": false,
        "count": NaN,
        "density__gm_per_cc": 5.945,
        "crystal_system": "cubic"
    },
    "mp-1183587": {
        "formula": "Cd3As",
        "spacegroup": "I4/mmm",
        "formation_energy__eV": 0.1,
        "E_above_hull__eV": 0.16399999999999998,
        "band_gap__eV": 0.0,
        "has_bandstructure": true,
        "volume": 89.353,
        "Nsites": 4,
        "theoretical": true,
        "count": NaN,
        "density__gm_per_cc": 7.66,
        "crystal_system": "tetragonal"
    },
    "mp-1183659": {
        "formula": "CdAs3",
        "spacegroup": "P63/mmc",
        "formation_energy__eV": 0.373,
        "E_above_hull__eV": 0.43799999999999994,
        "band_gap__eV": 0.0,
        "has_bandstructure": true,
        "volume": 163.766,
        "Nsites": 8,
        "theoretical": true,
        "count": NaN,
        "density__gm_per_cc": 6.837999999999999,
        "crystal_system": "hexagonal"
    }
}