{
    "mp-771359": {
        "formula": "Cu2O3",
        "spacegroup": "Ia3",
        "formation_energy__eV": -0.8420000000000001,
        "E_above_hull__eV": 0.0,
        "band_gap__eV": 0.0,
        "has_bandstructure": true,
        "volume": 407.416,
        "Nsites": 40,
        "theoretical": true,
        "count": 35.0,
        "density__gm_per_cc": 5.709,
        "crystal_system": "cubic"
    },
    "mp-1692": {
        "formula": "CuO",
        "spacegroup": "P42/mmc",
        "formation_energy__eV": -0.95,
        "E_above_hull__eV": 0.0,
        "band_gap__eV": 0.0,
        "has_bandstructure": true,
        "volume": 44.168,
        "Nsites": 4,
        "theoretical": false,
        "count": NaN,
        "density__gm_per_cc": 5.981,
        "crystal_system": "tetragonal"
    },
    "mp-361": {
        "formula": "Cu2O",
        "spacegroup": "Pn3m",
        "formation_energy__eV": -0.65,
        "E_above_hull__eV": 0.0,
        "band_gap__eV": 0.513,
        "has_bandstructure": true,
        "volume": 78.833,
        "Nsites": 6,
        "theoretical": false,
        "count": NaN,
        "density__gm_per_cc": 6.028,
        "crystal_system": "cubic"
    },
    "mp-704645": {
        "formula": "CuO",
        "spacegroup": "C2/c",
        "formation_energy__eV": -0.95,
        "E_above_hull__eV": 0.0,
        "band_gap__eV": 0.0,
        "has_bandstructure": true,
        "volume": 44.486000000000004,
        "Nsites": 4,
        "theoretical": false,
        "count": NaN,
        "density__gm_per_cc": 5.938,
        "crystal_system": "monoclinic"
    },
    "mp-1064456": {
        "formula": "CuO",
        "spacegroup": "Cccm",
        "formation_energy__eV": -0.9490000000000001,
        "E_above_hull__eV": 0.001,
        "band_gap__eV": 0.0,
        "has_bandstructure": true,
        "volume": 44.214,
        "Nsites": 4,
        "theoretical": false,
        "count": NaN,
        "density__gm_per_cc": 5.975,
        "crystal_system": "orthorhombic"
    },
    "mp-760432": {
        "formula": "Cu2O3",
        "spacegroup": "Fdd2",
        "formation_energy__eV": -0.8370000000000001,
        "E_above_hull__eV": 0.005,
        "band_gap__eV": 0.14300000000000002,
        "has_bandstructure": true,
        "volume": 104.613,
        "Nsites": 10,
        "theoretical": true,
        "count": NaN,
        "density__gm_per_cc": 5.558,
        "crystal_system": "orthorhombic"
    },
    "mp-1478": {
        "formula": "Cu4O3",
        "spacegroup": "I41/amd",
        "formation_energy__eV": -0.8109999999999999,
        "E_above_hull__eV": 0.011000000000000001,
        "band_gap__eV": 0.0,
        "has_bandstructure": true,
        "volume": 171.767,
        "Nsites": 14,
        "theoretical": false,
        "count": NaN,
        "density__gm_per_cc": 5.843,
        "crystal_system": "tetragonal"
    },
    "mp-1178476": {
        "formula": "Cu3O4",
        "spacegroup": "Ibam",
        "formation_energy__eV": -0.841,
        "E_above_hull__eV": 0.032,
        "band_gap__eV": 0.0,
        "has_bandstructure": false,
        "volume": 159.107,
        "Nsites": 14,
        "theoretical": true,
        "count": NaN,
        "density__gm_per_cc": 5.315,
        "crystal_system": "orthorhombic"
    },
    "mp-1213626": {
        "formula": "Cu64O",
        "spacegroup": "Amm2",
        "formation_energy__eV": 0.002,
        "E_above_hull__eV": 0.032,
        "band_gap__eV": 0.0,
        "has_bandstructure": false,
        "volume": 766.9689999999999,
        "Nsites": 65,
        "theoretical": true,
        "count": NaN,
        "density__gm_per_cc": 8.84,
        "crystal_system": "orthorhombic"
    },
    "mp-755040": {
        "formula": "Cu2O3",
        "spacegroup": "P21/c",
        "formation_energy__eV": -0.7959999999999999,
        "E_above_hull__eV": 0.046,
        "band_gap__eV": 0.0,
        "has_bandstructure": true,
        "volume": 269.573,
        "Nsites": 20,
        "theoretical": true,
        "count": NaN,
        "density__gm_per_cc": 4.314,
        "crystal_system": "monoclinic"
    },
    "mp-760084": {
        "formula": "Cu8O7",
        "spacegroup": "Cm",
        "formation_energy__eV": -0.8370000000000001,
        "E_above_hull__eV": 0.053,
        "band_gap__eV": 0.0,
        "has_bandstructure": true,
        "volume": 172.543,
        "Nsites": 15,
        "theoretical": true,
        "count": NaN,
        "density__gm_per_cc": 5.97,
        "crystal_system": "monoclinic"
    },
    "mp-1147673": {
        "formula": "Cu3O4",
        "spacegroup": "Fm3m",
        "formation_energy__eV": -0.807,
        "E_above_hull__eV": 0.066,
        "band_gap__eV": 0.0,
        "has_bandstructure": false,
        "volume": 183.415,
        "Nsites": 14,
        "theoretical": true,
        "count": NaN,
        "density__gm_per_cc": 4.611000000000001,
        "crystal_system": "cubic"
    },
    "mp-32905": {
        "formula": "Cu8O7",
        "spacegroup": "C2",
        "formation_energy__eV": -0.823,
        "E_above_hull__eV": 0.067,
        "band_gap__eV": 0.0,
        "has_bandstructure": false,
        "volume": 172.982,
        "Nsites": 15,
        "theoretical": true,
        "count": NaN,
        "density__gm_per_cc": 5.955,
        "crystal_system": "monoclinic"
    },
    "mp-1023130": {
        "formula": "Cu4O3",
        "spacegroup": "P4/nmm",
        "formation_energy__eV": -0.713,
        "E_above_hull__eV": 0.109,
        "band_gap__eV": 0.0,
        "has_bandstructure": true,
        "volume": 153.84,
        "Nsites": 14,
        "theoretical": true,
        "count": NaN,
        "density__gm_per_cc": 6.523,
        "crystal_system": "tetragonal"
    },
    "mp-31217": {
        "formula": "Cu8O",
        "spacegroup": "Cmmm",
        "formation_energy__eV": -0.099,
        "E_above_hull__eV": 0.11800000000000001,
        "band_gap__eV": 0.0,
        "has_bandstructure": true,
        "volume": 106.08,
        "Nsites": 9,
        "theoretical": false,
        "count": NaN,
        "density__gm_per_cc": 8.208,
        "crystal_system": "orthorhombic"
    },
    "mp-510752": {
        "formula": "CuO",
        "spacegroup": "Pnma",
        "formation_energy__eV": -0.7979999999999999,
        "E_above_hull__eV": 0.153,
        "band_gap__eV": 0.14,
        "has_bandstructure": false,
        "volume": 225.49900000000002,
        "Nsites": 16,
        "theoretical": true,
        "count": NaN,
        "density__gm_per_cc": 4.686,
        "crystal_system": "orthorhombic"
    },
    "mp-1022728": {
        "formula": "Cu3O2",
        "spacegroup": "I4/mmm",
        "formation_energy__eV": -0.61,
        "E_above_hull__eV": 0.16,
        "band_gap__eV": 0.0,
        "has_bandstructure": true,
        "volume": 60.136,
        "Nsites": 5,
        "theoretical": true,
        "count": NaN,
        "density__gm_per_cc": 6.148,
        "crystal_system": "tetragonal"
    },
    "mp-25378": {
        "formula": "CuO2",
        "spacegroup": "R3m",
        "formation_energy__eV": -0.54,
        "E_above_hull__eV": 0.162,
        "band_gap__eV": 0.0,
        "has_bandstructure": true,
        "volume": 34.255,
        "Nsites": 3,
        "theoretical": true,
        "count": NaN,
        "density__gm_per_cc": 4.632,
        "crystal_system": "trigonal"
    },
    "mp-14549": {
        "formula": "CuO",
        "spacegroup": "Fm3m",
        "formation_energy__eV": -0.779,
        "E_above_hull__eV": 0.172,
        "band_gap__eV": 0.0,
        "has_bandstructure": true,
        "volume": 18.964000000000002,
        "Nsites": 2,
        "theoretical": false,
        "count": NaN,
        "density__gm_per_cc": 6.965,
        "crystal_system": "cubic"
    },
    "mp-504100": {
        "formula": "CuO2",
        "spacegroup": "Fd3m",
        "formation_energy__eV": -0.529,
        "E_above_hull__eV": 0.172,
        "band_gap__eV": 0.0,
        "has_bandstructure": true,
        "volume": 140.249,
        "Nsites": 12,
        "theoretical": true,
        "count": NaN,
        "density__gm_per_cc": 4.525,
        "crystal_system": "cubic"
    },
    "mvc-1956": {
        "formula": "Cu9O13",
        "spacegroup": "C2/m",
        "formation_energy__eV": -0.6759999999999999,
        "E_above_hull__eV": 0.17600000000000002,
        "band_gap__eV": 0.0,
        "has_bandstructure": true,
        "volume": 232.13099999999997,
        "Nsites": 22,
        "theoretical": true,
        "count": NaN,
        "density__gm_per_cc": 5.579,
        "crystal_system": "monoclinic"
    },
    "mp-510751": {
        "formula": "CuO",
        "spacegroup": "P42/nmc",
        "formation_energy__eV": -0.7709999999999999,
        "E_above_hull__eV": 0.18,
        "band_gap__eV": 0.013999999999999999,
        "has_bandstructure": true,
        "volume": 418.059,
        "Nsites": 32,
        "theoretical": true,
        "count": NaN,
        "density__gm_per_cc": 5.055,
        "crystal_system": "tetragonal"
    },
    "mp-704745": {
        "formula": "Cu8O",
        "spacegroup": "Amm2",
        "formation_energy__eV": -0.031,
        "E_above_hull__eV": 0.185,
        "band_gap__eV": 0.0,
        "has_bandstructure": true,
        "volume": 107.976,
        "Nsites": 9,
        "theoretical": false,
        "count": NaN,
        "density__gm_per_cc": 8.064,
        "crystal_system": "orthorhombic"
    },
    "mvc-2262": {
        "formula": "Cu5O7",
        "spacegroup": "Cmcm",
        "formation_energy__eV": -0.6729999999999999,
        "E_above_hull__eV": 0.187,
        "band_gap__eV": 0.0,
        "has_bandstructure": true,
        "volume": 256.32099999999997,
        "Nsites": 24,
        "theoretical": true,
        "count": NaN,
        "density__gm_per_cc": 5.568,
        "crystal_system": "orthorhombic"
    },
    "mvc-396": {
        "formula": "Cu2O3",
        "spacegroup": "Cmcm",
        "formation_energy__eV": -0.65,
        "E_above_hull__eV": 0.192,
        "band_gap__eV": 0.0,
        "has_bandstructure": true,
        "volume": 214.794,
        "Nsites": 20,
        "theoretical": true,
        "count": NaN,
        "density__gm_per_cc": 5.414,
        "crystal_system": "orthorhombic"
    },
    "mp-1181499": {
        "formula": "CuO2",
        "spacegroup": "Cmcm",
        "formation_energy__eV": -0.508,
        "E_above_hull__eV": 0.19399999999999998,
        "band_gap__eV": 0.0,
        "has_bandstructure": true,
        "volume": 63.942,
        "Nsites": 6,
        "theoretical": false,
        "count": NaN,
        "density__gm_per_cc": 4.962,
        "crystal_system": "orthorhombic"
    },
    "mp-1147761": {
        "formula": "Cu8O7",
        "spacegroup": "Fm3m",
        "formation_energy__eV": -0.6779999999999999,
        "E_above_hull__eV": 0.212,
        "band_gap__eV": 0.0,
        "has_bandstructure": false,
        "volume": 147.893,
        "Nsites": 15,
        "theoretical": true,
        "count": NaN,
        "density__gm_per_cc": 6.965,
        "crystal_system": "cubic"
    },
    "mp-601195": {
        "formula": "CuO2",
        "spacegroup": "Cmcm",
        "formation_energy__eV": -0.429,
        "E_above_hull__eV": 0.273,
        "band_gap__eV": 0.053,
        "has_bandstructure": true,
        "volume": 206.264,
        "Nsites": 6,
        "theoretical": false,
        "count": NaN,
        "density__gm_per_cc": 1.538,
        "crystal_system": "orthorhombic"
    },
    "mp-1147768": {
        "formula": "CuO",
        "spacegroup": "P4/mmm",
        "formation_energy__eV": -0.6729999999999999,
        "E_above_hull__eV": 0.278,
        "band_gap__eV": 0.0,
        "has_bandstructure": true,
        "volume": 67.308,
        "Nsites": 6,
        "theoretical": true,
        "count": NaN,
        "density__gm_per_cc": 5.8870000000000005,
        "crystal_system": "tetragonal"
    },
    "mp-614565": {
        "formula": "CuO2",
        "spacegroup": "Fmmm",
        "formation_energy__eV": -0.419,
        "E_above_hull__eV": 0.28300000000000003,
        "band_gap__eV": 0.0,
        "has_bandstructure": true,
        "volume": 57.298,
        "Nsites": 3,
        "theoretical": false,
        "count": NaN,
        "density__gm_per_cc": 2.7689999999999997,
        "crystal_system": "orthorhombic"
    },
    "mp-600604": {
        "formula": "CuO2",
        "spacegroup": "Fmmm",
        "formation_energy__eV": -0.41600000000000004,
        "E_above_hull__eV": 0.28600000000000003,
        "band_gap__eV": 0.018000000000000002,
        "has_bandstructure": true,
        "volume": 83.76299999999999,
        "Nsites": 3,
        "theoretical": false,
        "count": NaN,
        "density__gm_per_cc": 1.8940000000000001,
        "crystal_system": "orthorhombic"
    },
    "mp-1120722": {
        "formula": "CuO",
        "spacegroup": "Pm3m",
        "formation_energy__eV": -0.615,
        "E_above_hull__eV": 0.335,
        "band_gap__eV": 0.0,
        "has_bandstructure": true,
        "volume": 61.22,
        "Nsites": 6,
        "theoretical": true,
        "count": NaN,
        "density__gm_per_cc": 6.473,
        "crystal_system": "cubic"
    },
    "mp-755928": {
        "formula": "Cu2O3",
        "spacegroup": "P21/c",
        "formation_energy__eV": -0.45,
        "E_above_hull__eV": 0.392,
        "band_gap__eV": 0.0,
        "has_bandstructure": true,
        "volume": 218.653,
        "Nsites": 20,
        "theoretical": true,
        "count": NaN,
        "density__gm_per_cc": 5.319,
        "crystal_system": "monoclinic"
    },
    "mp-25229": {
        "formula": "CuO",
        "spacegroup": "I4/mmm",
        "formation_energy__eV": -0.361,
        "E_above_hull__eV": 0.589,
        "band_gap__eV": 0.0,
        "has_bandstructure": true,
        "volume": 141.582,
        "Nsites": 8,
        "theoretical": true,
        "count": NaN,
        "density__gm_per_cc": 3.7319999999999998,
        "crystal_system": "tetragonal"
    },
    "mp-705439": {
        "formula": "CuO2",
        "spacegroup": "Pmmm",
        "formation_energy__eV": 0.713,
        "E_above_hull__eV": 1.4140000000000001,
        "band_gap__eV": 0.0,
        "has_bandstructure": true,
        "volume": 110.29899999999999,
        "Nsites": 3,
        "theoretical": false,
        "count": NaN,
        "density__gm_per_cc": 1.4380000000000002,
        "crystal_system": "orthorhombic"
    }
}