{
    "mp-804": {
        "formula": "GaN",
        "spacegroup": "P63mc",
        "formation_energy__eV": -0.6679999999999999,
        "E_above_hull__eV": 0.0,
        "band_gap__eV": 1.7380000000000002,
        "has_bandstructure": true,
        "volume": 46.943000000000005,
        "Nsites": 4,
        "theoretical": false,
        "count": 42.0,
        "density__gm_per_cc": 5.9239999999999995,
        "crystal_system": "hexagonal"
    },
    "mp-830": {
        "formula": "GaN",
        "spacegroup": "F43m",
        "formation_energy__eV": -0.6629999999999999,
        "E_above_hull__eV": 0.005,
        "band_gap__eV": 1.905,
        "has_bandstructure": true,
        "volume": 23.48,
        "Nsites": 2,
        "theoretical": true,
        "count": NaN,
        "density__gm_per_cc": 5.921,
        "crystal_system": "cubic"
    },
    "mp-1007824": {
        "formula": "GaN",
        "spacegroup": "P63/mmc",
        "formation_energy__eV": -0.315,
        "E_above_hull__eV": 0.354,
        "band_gap__eV": 1.371,
        "has_bandstructure": true,
        "volume": 75.361,
        "Nsites": 4,
        "theoretical": false,
        "count": NaN,
        "density__gm_per_cc": 3.69,
        "crystal_system": "hexagonal"
    },
    "mp-2853": {
        "formula": "GaN",
        "spacegroup": "Fm3m",
        "formation_energy__eV": -0.18899999999999997,
        "E_above_hull__eV": 0.479,
        "band_gap__eV": 0.509,
        "has_bandstructure": true,
        "volume": 19.47,
        "Nsites": 2,
        "theoretical": false,
        "count": NaN,
        "density__gm_per_cc": 7.141,
        "crystal_system": "cubic"
    },
    "mp-1244975": {
        "formula": "GaN",
        "spacegroup": "P1",
        "formation_energy__eV": -0.051,
        "E_above_hull__eV": 0.618,
        "band_gap__eV": 0.087,
        "has_bandstructure": false,
        "volume": 1503.8410000000001,
        "Nsites": 100,
        "theoretical": true,
        "count": NaN,
        "density__gm_per_cc": 4.623,
        "crystal_system": "triclinic"
    },
    "mp-1244995": {
        "formula": "GaN",
        "spacegroup": "P1",
        "formation_energy__eV": -0.037000000000000005,
        "E_above_hull__eV": 0.631,
        "band_gap__eV": 0.156,
        "has_bandstructure": false,
        "volume": 1481.6470000000002,
        "Nsites": 100,
        "theoretical": true,
        "count": NaN,
        "density__gm_per_cc": 4.692,
        "crystal_system": "triclinic"
    },
    "mp-1245233": {
        "formula": "GaN",
        "spacegroup": "P1",
        "formation_energy__eV": -0.019,
        "E_above_hull__eV": 0.649,
        "band_gap__eV": 0.0,
        "has_bandstructure": false,
        "volume": 1645.267,
        "Nsites": 100,
        "theoretical": true,
        "count": NaN,
        "density__gm_per_cc": 4.225,
        "crystal_system": "triclinic"
    },
    "mp-1244916": {
        "formula": "GaN",
        "spacegroup": "P1",
        "formation_energy__eV": -0.019,
        "E_above_hull__eV": 0.649,
        "band_gap__eV": 0.034,
        "has_bandstructure": false,
        "volume": 1567.783,
        "Nsites": 100,
        "theoretical": true,
        "count": NaN,
        "density__gm_per_cc": 4.434,
        "crystal_system": "triclinic"
    },
    "mp-1244866": {
        "formula": "GaN",
        "spacegroup": "P1",
        "formation_energy__eV": -0.01,
        "E_above_hull__eV": 0.6579999999999999,
        "band_gap__eV": 0.0,
        "has_bandstructure": false,
        "volume": 1543.844,
        "Nsites": 100,
        "theoretical": true,
        "count": NaN,
        "density__gm_per_cc": 4.503,
        "crystal_system": "triclinic"
    },
    "mp-1245148": {
        "formula": "GaN",
        "spacegroup": "P1",
        "formation_energy__eV": 0.009000000000000001,
        "E_above_hull__eV": 0.677,
        "band_gap__eV": 0.0,
        "has_bandstructure": false,
        "volume": 1471.255,
        "Nsites": 100,
        "theoretical": true,
        "count": NaN,
        "density__gm_per_cc": 4.725,
        "crystal_system": "triclinic"
    },
    "mp-1245132": {
        "formula": "GaN",
        "spacegroup": "P1",
        "formation_energy__eV": 0.01,
        "E_above_hull__eV": 0.6779999999999999,
        "band_gap__eV": 0.0,
        "has_bandstructure": false,
        "volume": 1506.9229999999998,
        "Nsites": 100,
        "theoretical": true,
        "count": NaN,
        "density__gm_per_cc": 4.613,
        "crystal_system": "triclinic"
    },
    "mp-1245069": {
        "formula": "GaN",
        "spacegroup": "P1",
        "formation_energy__eV": 0.012,
        "E_above_hull__eV": 0.68,
        "band_gap__eV": 0.075,
        "has_bandstructure": false,
        "volume": 1677.612,
        "Nsites": 100,
        "theoretical": true,
        "count": NaN,
        "density__gm_per_cc": 4.144,
        "crystal_system": "triclinic"
    },
    "mp-1245095": {
        "formula": "GaN",
        "spacegroup": "P1",
        "formation_energy__eV": 0.013999999999999999,
        "E_above_hull__eV": 0.682,
        "band_gap__eV": 0.0,
        "has_bandstructure": false,
        "volume": 1661.66,
        "Nsites": 100,
        "theoretical": true,
        "count": NaN,
        "density__gm_per_cc": 4.184,
        "crystal_system": "triclinic"
    },
    "mp-1245288": {
        "formula": "GaN",
        "spacegroup": "P1",
        "formation_energy__eV": 0.013999999999999999,
        "E_above_hull__eV": 0.6829999999999999,
        "band_gap__eV": 0.0,
        "has_bandstructure": false,
        "volume": 1517.612,
        "Nsites": 100,
        "theoretical": true,
        "count": NaN,
        "density__gm_per_cc": 4.581,
        "crystal_system": "triclinic"
    },
    "mp-1245286": {
        "formula": "GaN",
        "spacegroup": "P1",
        "formation_energy__eV": 0.016,
        "E_above_hull__eV": 0.685,
        "band_gap__eV": 0.0,
        "has_bandstructure": false,
        "volume": 1500.1989999999998,
        "Nsites": 100,
        "theoretical": true,
        "count": NaN,
        "density__gm_per_cc": 4.6339999999999995,
        "crystal_system": "triclinic"
    },
    "mp-1245188": {
        "formula": "GaN",
        "spacegroup": "P1",
        "formation_energy__eV": 0.017,
        "E_above_hull__eV": 0.6859999999999999,
        "band_gap__eV": 0.0,
        "has_bandstructure": false,
        "volume": 1549.981,
        "Nsites": 100,
        "theoretical": true,
        "count": NaN,
        "density__gm_per_cc": 4.485,
        "crystal_system": "triclinic"
    },
    "mp-1244934": {
        "formula": "GaN",
        "spacegroup": "P1",
        "formation_energy__eV": 0.018000000000000002,
        "E_above_hull__eV": 0.6859999999999999,
        "band_gap__eV": 0.0,
        "has_bandstructure": false,
        "volume": 1584.3970000000002,
        "Nsites": 100,
        "theoretical": true,
        "count": NaN,
        "density__gm_per_cc": 4.388,
        "crystal_system": "triclinic"
    },
    "mp-1245130": {
        "formula": "GaN",
        "spacegroup": "P1",
        "formation_energy__eV": 0.018000000000000002,
        "E_above_hull__eV": 0.6859999999999999,
        "band_gap__eV": 0.09699999999999999,
        "has_bandstructure": false,
        "volume": 1650.481,
        "Nsites": 100,
        "theoretical": true,
        "count": NaN,
        "density__gm_per_cc": 4.212,
        "crystal_system": "triclinic"
    },
    "mp-1244884": {
        "formula": "GaN",
        "spacegroup": "P1",
        "formation_energy__eV": 0.024,
        "E_above_hull__eV": 0.6920000000000001,
        "band_gap__eV": 0.161,
        "has_bandstructure": false,
        "volume": 1563.6670000000001,
        "Nsites": 100,
        "theoretical": true,
        "count": NaN,
        "density__gm_per_cc": 4.446000000000001,
        "crystal_system": "triclinic"
    },
    "mp-1245172": {
        "formula": "GaN",
        "spacegroup": "P1",
        "formation_energy__eV": 0.024,
        "E_above_hull__eV": 0.6920000000000001,
        "band_gap__eV": 0.026000000000000002,
        "has_bandstructure": false,
        "volume": 1435.5610000000001,
        "Nsites": 100,
        "theoretical": true,
        "count": NaN,
        "density__gm_per_cc": 4.843,
        "crystal_system": "triclinic"
    },
    "mp-1245002": {
        "formula": "GaN",
        "spacegroup": "P1",
        "formation_energy__eV": 0.03,
        "E_above_hull__eV": 0.698,
        "band_gap__eV": 0.0,
        "has_bandstructure": false,
        "volume": 1528.2620000000002,
        "Nsites": 100,
        "theoretical": true,
        "count": NaN,
        "density__gm_per_cc": 4.5489999999999995,
        "crystal_system": "triclinic"
    },
    "mp-1244927": {
        "formula": "GaN",
        "spacegroup": "P1",
        "formation_energy__eV": 0.034,
        "E_above_hull__eV": 0.7020000000000001,
        "band_gap__eV": 0.132,
        "has_bandstructure": false,
        "volume": 1473.989,
        "Nsites": 100,
        "theoretical": true,
        "count": NaN,
        "density__gm_per_cc": 4.716,
        "crystal_system": "triclinic"
    },
    "mp-1245033": {
        "formula": "GaN",
        "spacegroup": "P1",
        "formation_energy__eV": 0.034,
        "E_above_hull__eV": 0.7020000000000001,
        "band_gap__eV": 0.002,
        "has_bandstructure": false,
        "volume": 1538.164,
        "Nsites": 100,
        "theoretical": true,
        "count": NaN,
        "density__gm_per_cc": 4.52,
        "crystal_system": "triclinic"
    },
    "mp-1245244": {
        "formula": "GaN",
        "spacegroup": "P1",
        "formation_energy__eV": 0.034,
        "E_above_hull__eV": 0.703,
        "band_gap__eV": 0.02,
        "has_bandstructure": false,
        "volume": 1569.014,
        "Nsites": 100,
        "theoretical": true,
        "count": NaN,
        "density__gm_per_cc": 4.431,
        "crystal_system": "triclinic"
    },
    "mp-1245181": {
        "formula": "GaN",
        "spacegroup": "P1",
        "formation_energy__eV": 0.035,
        "E_above_hull__eV": 0.703,
        "band_gap__eV": 0.0,
        "has_bandstructure": false,
        "volume": 1489.9820000000002,
        "Nsites": 100,
        "theoretical": true,
        "count": NaN,
        "density__gm_per_cc": 4.666,
        "crystal_system": "triclinic"
    },
    "mp-1245326": {
        "formula": "GaN",
        "spacegroup": "P1",
        "formation_energy__eV": 0.036000000000000004,
        "E_above_hull__eV": 0.7040000000000001,
        "band_gap__eV": 0.0,
        "has_bandstructure": false,
        "volume": 1486.104,
        "Nsites": 100,
        "theoretical": true,
        "count": NaN,
        "density__gm_per_cc": 4.678,
        "crystal_system": "triclinic"
    },
    "mp-1245046": {
        "formula": "GaN",
        "spacegroup": "P1",
        "formation_energy__eV": 0.036000000000000004,
        "E_above_hull__eV": 0.7040000000000001,
        "band_gap__eV": 0.036000000000000004,
        "has_bandstructure": false,
        "volume": 1584.1589999999999,
        "Nsites": 100,
        "theoretical": true,
        "count": NaN,
        "density__gm_per_cc": 4.388,
        "crystal_system": "triclinic"
    },
    "mp-1244886": {
        "formula": "GaN",
        "spacegroup": "P1",
        "formation_energy__eV": 0.037000000000000005,
        "E_above_hull__eV": 0.705,
        "band_gap__eV": 0.049,
        "has_bandstructure": false,
        "volume": 1531.441,
        "Nsites": 100,
        "theoretical": true,
        "count": NaN,
        "density__gm_per_cc": 4.539,
        "crystal_system": "triclinic"
    },
    "mp-1245138": {
        "formula": "GaN",
        "spacegroup": "P1",
        "formation_energy__eV": 0.037000000000000005,
        "E_above_hull__eV": 0.706,
        "band_gap__eV": 0.01,
        "has_bandstructure": false,
        "volume": 1541.112,
        "Nsites": 100,
        "theoretical": true,
        "count": NaN,
        "density__gm_per_cc": 4.511,
        "crystal_system": "triclinic"
    },
    "mp-1245030": {
        "formula": "GaN",
        "spacegroup": "P1",
        "formation_energy__eV": 0.038,
        "E_above_hull__eV": 0.7070000000000001,
        "band_gap__eV": 0.059000000000000004,
        "has_bandstructure": false,
        "volume": 1399.09,
        "Nsites": 100,
        "theoretical": true,
        "count": NaN,
        "density__gm_per_cc": 4.968999999999999,
        "crystal_system": "triclinic"
    },
    "mp-1245295": {
        "formula": "GaN",
        "spacegroup": "P1",
        "formation_energy__eV": 0.039,
        "E_above_hull__eV": 0.708,
        "band_gap__eV": 0.0,
        "has_bandstructure": false,
        "volume": 1499.132,
        "Nsites": 100,
        "theoretical": true,
        "count": NaN,
        "density__gm_per_cc": 4.637,
        "crystal_system": "triclinic"
    },
    "mp-1245258": {
        "formula": "GaN",
        "spacegroup": "P1",
        "formation_energy__eV": 0.044000000000000004,
        "E_above_hull__eV": 0.7120000000000001,
        "band_gap__eV": 0.0,
        "has_bandstructure": false,
        "volume": 1496.264,
        "Nsites": 100,
        "theoretical": true,
        "count": NaN,
        "density__gm_per_cc": 4.646,
        "crystal_system": "triclinic"
    },
    "mp-1244903": {
        "formula": "GaN",
        "spacegroup": "P1",
        "formation_energy__eV": 0.047,
        "E_above_hull__eV": 0.715,
        "band_gap__eV": 0.069,
        "has_bandstructure": false,
        "volume": 2268.848,
        "Nsites": 100,
        "theoretical": true,
        "count": NaN,
        "density__gm_per_cc": 3.0639999999999996,
        "crystal_system": "triclinic"
    },
    "mp-1245013": {
        "formula": "GaN",
        "spacegroup": "P1",
        "formation_energy__eV": 0.049,
        "E_above_hull__eV": 0.718,
        "band_gap__eV": 0.087,
        "has_bandstructure": false,
        "volume": 1550.933,
        "Nsites": 100,
        "theoretical": true,
        "count": NaN,
        "density__gm_per_cc": 4.482,
        "crystal_system": "triclinic"
    },
    "mp-1245165": {
        "formula": "GaN",
        "spacegroup": "P1",
        "formation_energy__eV": 0.051,
        "E_above_hull__eV": 0.7190000000000001,
        "band_gap__eV": 0.0,
        "has_bandstructure": false,
        "volume": 1474.1879999999999,
        "Nsites": 100,
        "theoretical": true,
        "count": NaN,
        "density__gm_per_cc": 4.716,
        "crystal_system": "triclinic"
    },
    "mp-1245106": {
        "formula": "GaN",
        "spacegroup": "P1",
        "formation_energy__eV": 0.055999999999999994,
        "E_above_hull__eV": 0.725,
        "band_gap__eV": 0.0,
        "has_bandstructure": false,
        "volume": 2460.4570000000003,
        "Nsites": 100,
        "theoretical": true,
        "count": NaN,
        "density__gm_per_cc": 2.825,
        "crystal_system": "triclinic"
    },
    "mp-1245302": {
        "formula": "GaN",
        "spacegroup": "P1",
        "formation_energy__eV": 0.059000000000000004,
        "E_above_hull__eV": 0.728,
        "band_gap__eV": 0.083,
        "has_bandstructure": false,
        "volume": 1625.961,
        "Nsites": 100,
        "theoretical": true,
        "count": NaN,
        "density__gm_per_cc": 4.276,
        "crystal_system": "triclinic"
    },
    "mp-1245150": {
        "formula": "GaN",
        "spacegroup": "P1",
        "formation_energy__eV": 0.064,
        "E_above_hull__eV": 0.732,
        "band_gap__eV": 0.0,
        "has_bandstructure": false,
        "volume": 1621.076,
        "Nsites": 100,
        "theoretical": true,
        "count": NaN,
        "density__gm_per_cc": 4.288,
        "crystal_system": "triclinic"
    },
    "mp-1245075": {
        "formula": "GaN",
        "spacegroup": "P1",
        "formation_energy__eV": 0.066,
        "E_above_hull__eV": 0.7340000000000001,
        "band_gap__eV": 0.0,
        "has_bandstructure": false,
        "volume": 1435.93,
        "Nsites": 100,
        "theoretical": true,
        "count": NaN,
        "density__gm_per_cc": 4.841,
        "crystal_system": "triclinic"
    },
    "mp-1244984": {
        "formula": "GaN",
        "spacegroup": "P1",
        "formation_energy__eV": 0.073,
        "E_above_hull__eV": 0.742,
        "band_gap__eV": 0.0,
        "has_bandstructure": false,
        "volume": 2252.3320000000003,
        "Nsites": 100,
        "theoretical": true,
        "count": NaN,
        "density__gm_per_cc": 3.0860000000000003,
        "crystal_system": "triclinic"
    },
    "mp-1244896": {
        "formula": "GaN",
        "spacegroup": "P1",
        "formation_energy__eV": 0.076,
        "E_above_hull__eV": 0.7440000000000001,
        "band_gap__eV": 0.033,
        "has_bandstructure": false,
        "volume": 2300.8179999999998,
        "Nsites": 100,
        "theoretical": true,
        "count": NaN,
        "density__gm_per_cc": 3.0210000000000004,
        "crystal_system": "triclinic"
    },
    "mp-1244998": {
        "formula": "GaN",
        "spacegroup": "P1",
        "formation_energy__eV": 0.1,
        "E_above_hull__eV": 0.768,
        "band_gap__eV": 0.0,
        "has_bandstructure": false,
        "volume": 1565.089,
        "Nsites": 100,
        "theoretical": true,
        "count": NaN,
        "density__gm_per_cc": 4.442,
        "crystal_system": "triclinic"
    }
}