{
    "mp-32": {
        "formula": "Ge",
        "spacegroup": "Fd3m",
        "formation_energy__eV": 0.0,
        "E_above_hull__eV": 0.0,
        "band_gap__eV": 0.0,
        "has_bandstructure": true,
        "volume": 47.847,
        "Nsites": 2,
        "theoretical": false,
        "count": 17.0,
        "density__gm_per_cc": 5.042,
        "crystal_system": "cubic"
    },
    "mp-1091415": {
        "formula": "Ge",
        "spacegroup": "P63/mmc",
        "formation_energy__eV": 0.008,
        "E_above_hull__eV": 0.008,
        "band_gap__eV": 0.0,
        "has_bandstructure": true,
        "volume": 191.05200000000002,
        "Nsites": 8,
        "theoretical": false,
        "count": NaN,
        "density__gm_per_cc": 5.051,
        "crystal_system": "hexagonal"
    },
    "mp-1198022": {
        "formula": "Ge",
        "spacegroup": "Fd3m",
        "formation_energy__eV": 0.026000000000000002,
        "E_above_hull__eV": 0.026000000000000002,
        "band_gap__eV": 0.67,
        "has_bandstructure": false,
        "volume": 922.6389999999999,
        "Nsites": 34,
        "theoretical": false,
        "count": NaN,
        "density__gm_per_cc": 4.445,
        "crystal_system": "cubic"
    },
    "mp-1007760": {
        "formula": "Ge",
        "spacegroup": "P63/mmc",
        "formation_energy__eV": 0.121,
        "E_above_hull__eV": 0.121,
        "band_gap__eV": 0.086,
        "has_bandstructure": true,
        "volume": 94.944,
        "Nsites": 4,
        "theoretical": false,
        "count": NaN,
        "density__gm_per_cc": 5.082,
        "crystal_system": "hexagonal"
    },
    "mp-1080106": {
        "formula": "Ge",
        "spacegroup": "Ia3",
        "formation_energy__eV": 0.14,
        "E_above_hull__eV": 0.14,
        "band_gap__eV": 0.0,
        "has_bandstructure": true,
        "volume": 175.024,
        "Nsites": 8,
        "theoretical": false,
        "count": NaN,
        "density__gm_per_cc": 5.513,
        "crystal_system": "cubic"
    },
    "mp-128": {
        "formula": "Ge",
        "spacegroup": "R3",
        "formation_energy__eV": 0.142,
        "E_above_hull__eV": 0.142,
        "band_gap__eV": 0.0,
        "has_bandstructure": true,
        "volume": 173.077,
        "Nsites": 8,
        "theoretical": false,
        "count": NaN,
        "density__gm_per_cc": 5.575,
        "crystal_system": "trigonal"
    },
    "mp-78": {
        "formula": "Ge",
        "spacegroup": "I41/amd",
        "formation_energy__eV": 0.22699999999999998,
        "E_above_hull__eV": 0.22699999999999998,
        "band_gap__eV": 0.0,
        "has_bandstructure": true,
        "volume": 38.586999999999996,
        "Nsites": 2,
        "theoretical": false,
        "count": NaN,
        "density__gm_per_cc": 6.252000000000001,
        "crystal_system": "tetragonal"
    },
    "mp-1061054": {
        "formula": "Ge",
        "spacegroup": "Imma",
        "formation_energy__eV": 0.23600000000000002,
        "E_above_hull__eV": 0.23600000000000002,
        "band_gap__eV": 0.0,
        "has_bandstructure": true,
        "volume": 38.029,
        "Nsites": 2,
        "theoretical": false,
        "count": NaN,
        "density__gm_per_cc": 6.343999999999999,
        "crystal_system": "orthorhombic"
    },
    "mp-137": {
        "formula": "Ge",
        "spacegroup": "P43212",
        "formation_energy__eV": 0.23800000000000002,
        "E_above_hull__eV": 0.23800000000000002,
        "band_gap__eV": 0.873,
        "has_bandstructure": true,
        "volume": 258.089,
        "Nsites": 12,
        "theoretical": false,
        "count": NaN,
        "density__gm_per_cc": 5.608,
        "crystal_system": "tetragonal"
    },
    "mp-1224349": {
        "formula": "Ge",
        "spacegroup": "Cmmm",
        "formation_energy__eV": 0.24600000000000002,
        "E_above_hull__eV": 0.24600000000000002,
        "band_gap__eV": 0.0,
        "has_bandstructure": true,
        "volume": 19.607,
        "Nsites": 1,
        "theoretical": true,
        "count": NaN,
        "density__gm_per_cc": 6.152,
        "crystal_system": "orthorhombic"
    },
    "mp-1079020": {
        "formula": "Ge",
        "spacegroup": "Cmce",
        "formation_energy__eV": 0.308,
        "E_above_hull__eV": 0.308,
        "band_gap__eV": 0.0,
        "has_bandstructure": true,
        "volume": 156.852,
        "Nsites": 8,
        "theoretical": false,
        "count": NaN,
        "density__gm_per_cc": 6.152,
        "crystal_system": "orthorhombic"
    },
    "mp-1197020": {
        "formula": "Ge",
        "spacegroup": "Fd3m",
        "formation_energy__eV": 0.321,
        "E_above_hull__eV": 0.321,
        "band_gap__eV": 0.0,
        "has_bandstructure": false,
        "volume": 952.742,
        "Nsites": 34,
        "theoretical": false,
        "count": NaN,
        "density__gm_per_cc": 4.305,
        "crystal_system": "cubic"
    },
    "mp-1008733": {
        "formula": "Ge",
        "spacegroup": "P63/mmc",
        "formation_energy__eV": 0.326,
        "E_above_hull__eV": 0.326,
        "band_gap__eV": 0.0,
        "has_bandstructure": true,
        "volume": 38.766999999999996,
        "Nsites": 2,
        "theoretical": false,
        "count": NaN,
        "density__gm_per_cc": 6.223,
        "crystal_system": "hexagonal"
    },
    "mp-12093": {
        "formula": "Ge",
        "spacegroup": "Fm3m",
        "formation_energy__eV": 0.32899999999999996,
        "E_above_hull__eV": 0.32899999999999996,
        "band_gap__eV": 0.0,
        "has_bandstructure": true,
        "volume": 19.653,
        "Nsites": 1,
        "theoretical": false,
        "count": NaN,
        "density__gm_per_cc": 6.138,
        "crystal_system": "cubic"
    },
    "mp-148": {
        "formula": "Ge",
        "spacegroup": "Fmmm",
        "formation_energy__eV": 0.34,
        "E_above_hull__eV": 0.34,
        "band_gap__eV": 0.0,
        "has_bandstructure": true,
        "volume": 77.665,
        "Nsites": 4,
        "theoretical": false,
        "count": NaN,
        "density__gm_per_cc": 6.212000000000001,
        "crystal_system": "orthorhombic"
    },
    "mp-998883": {
        "formula": "Ge",
        "spacegroup": "Im3m",
        "formation_energy__eV": 0.34,
        "E_above_hull__eV": 0.34,
        "band_gap__eV": 0.0,
        "has_bandstructure": true,
        "volume": 19.514,
        "Nsites": 1,
        "theoretical": true,
        "count": NaN,
        "density__gm_per_cc": 6.181,
        "crystal_system": "cubic"
    },
    "mp-1067619": {
        "formula": "Ge",
        "spacegroup": "P63mc",
        "formation_energy__eV": 0.47100000000000003,
        "E_above_hull__eV": 0.47100000000000003,
        "band_gap__eV": 0.7909999999999999,
        "has_bandstructure": true,
        "volume": 156.192,
        "Nsites": 4,
        "theoretical": false,
        "count": NaN,
        "density__gm_per_cc": 3.089,
        "crystal_system": "hexagonal"
    }
}