{
    "mp-1215403": {
        "formula": "ZnHgTe2",
        "spacegroup": "P4m2",
        "formation_energy__eV": -0.306,
        "E_above_hull__eV": 0.012,
        "band_gap__eV": 0.0,
        "has_bandstructure": true,
        "volume": 132.468,
        "Nsites": 4,
        "theoretical": true,
        "count": 3.0,
        "density__gm_per_cc": 6.5329999999999995,
        "crystal_system": "tetragonal"
    },
    "mp-1215476": {
        "formula": "ZnHgTe2",
        "spacegroup": "R3m",
        "formation_energy__eV": -0.292,
        "E_above_hull__eV": 0.027000000000000003,
        "band_gap__eV": 0.0,
        "has_bandstructure": true,
        "volume": 132.923,
        "Nsites": 4,
        "theoretical": true,
        "count": NaN,
        "density__gm_per_cc": 6.511,
        "crystal_system": "trigonal"
    },
    "mp-1215660": {
        "formula": "ZnHg4Te5",
        "spacegroup": "R3m",
        "formation_energy__eV": -0.196,
        "E_above_hull__eV": 0.03,
        "band_gap__eV": 0.0,
        "has_bandstructure": false,
        "volume": 356.595,
        "Nsites": 10,
        "theoretical": true,
        "count": NaN,
        "density__gm_per_cc": 7.0120000000000005,
        "crystal_system": "trigonal"
    }
}