{
    "mp-978114": {
        "formula": "Sn5O6",
        "spacegroup": "P21/c",
        "formation_energy__eV": -1.778,
        "E_above_hull__eV": 0.0,
        "band_gap__eV": 1.767,
        "has_bandstructure": true,
        "volume": 402.004,
        "Nsites": 22,
        "theoretical": true,
        "count": 45.0,
        "density__gm_per_cc": 5.697,
        "crystal_system": "monoclinic"
    },
    "mp-856": {
        "formula": "SnO2",
        "spacegroup": "P42/mnm",
        "formation_energy__eV": -2.123,
        "E_above_hull__eV": 0.0,
        "band_gap__eV": 1.4069999999999998,
        "has_bandstructure": true,
        "volume": 75.734,
        "Nsites": 6,
        "theoretical": false,
        "count": NaN,
        "density__gm_per_cc": 6.609,
        "crystal_system": "tetragonal"
    },
    "mp-2097": {
        "formula": "SnO",
        "spacegroup": "P4/nmm",
        "formation_energy__eV": -1.646,
        "E_above_hull__eV": 0.0,
        "band_gap__eV": 0.63,
        "has_bandstructure": true,
        "volume": 75.285,
        "Nsites": 4,
        "theoretical": false,
        "count": NaN,
        "density__gm_per_cc": 5.942,
        "crystal_system": "tetragonal"
    },
    "mvc-6611": {
        "formula": "SnO2",
        "spacegroup": "Imma",
        "formation_energy__eV": -2.123,
        "E_above_hull__eV": 0.0,
        "band_gap__eV": 0.648,
        "has_bandstructure": true,
        "volume": 151.491,
        "Nsites": 12,
        "theoretical": true,
        "count": NaN,
        "density__gm_per_cc": 6.608,
        "crystal_system": "orthorhombic"
    },
    "mp-545820": {
        "formula": "SnO",
        "spacegroup": "Cmce",
        "formation_energy__eV": -1.645,
        "E_above_hull__eV": 0.001,
        "band_gap__eV": 0.736,
        "has_bandstructure": true,
        "volume": 153.188,
        "Nsites": 8,
        "theoretical": false,
        "count": NaN,
        "density__gm_per_cc": 5.841,
        "crystal_system": "orthorhombic"
    },
    "mp-550172": {
        "formula": "SnO2",
        "spacegroup": "Pnnm",
        "formation_energy__eV": -2.121,
        "E_above_hull__eV": 0.002,
        "band_gap__eV": 0.823,
        "has_bandstructure": true,
        "volume": 75.517,
        "Nsites": 6,
        "theoretical": false,
        "count": NaN,
        "density__gm_per_cc": 6.627999999999999,
        "crystal_system": "orthorhombic"
    },
    "mp-555487": {
        "formula": "SnO2",
        "spacegroup": "Pbcn",
        "formation_energy__eV": -2.1109999999999998,
        "E_above_hull__eV": 0.012,
        "band_gap__eV": 0.847,
        "has_bandstructure": true,
        "volume": 450.694,
        "Nsites": 36,
        "theoretical": false,
        "count": NaN,
        "density__gm_per_cc": 6.662999999999999,
        "crystal_system": "orthorhombic"
    },
    "mp-12978": {
        "formula": "SnO2",
        "spacegroup": "Pbcn",
        "formation_energy__eV": -2.105,
        "E_above_hull__eV": 0.018000000000000002,
        "band_gap__eV": 0.978,
        "has_bandstructure": true,
        "volume": 148.495,
        "Nsites": 12,
        "theoretical": true,
        "count": NaN,
        "density__gm_per_cc": 6.7410000000000005,
        "crystal_system": "orthorhombic"
    },
    "mp-755071": {
        "formula": "SnO2",
        "spacegroup": "I41/amd",
        "formation_energy__eV": -2.066,
        "E_above_hull__eV": 0.057,
        "band_gap__eV": 1.501,
        "has_bandstructure": true,
        "volume": 85.236,
        "Nsites": 6,
        "theoretical": true,
        "count": NaN,
        "density__gm_per_cc": 5.872000000000001,
        "crystal_system": "tetragonal"
    },
    "mvc-15363": {
        "formula": "SnO2",
        "spacegroup": "I4/m",
        "formation_energy__eV": -2.055,
        "E_above_hull__eV": 0.069,
        "band_gap__eV": 1.7830000000000001,
        "has_bandstructure": false,
        "volume": 186.658,
        "Nsites": 12,
        "theoretical": true,
        "count": NaN,
        "density__gm_per_cc": 5.3629999999999995,
        "crystal_system": "tetragonal"
    },
    "mp-545552": {
        "formula": "SnO",
        "spacegroup": "Pmn21",
        "formation_energy__eV": -1.575,
        "E_above_hull__eV": 0.071,
        "band_gap__eV": 1.479,
        "has_bandstructure": true,
        "volume": 80.372,
        "Nsites": 4,
        "theoretical": false,
        "count": NaN,
        "density__gm_per_cc": 5.566,
        "crystal_system": "orthorhombic"
    },
    "mvc-5659": {
        "formula": "SnO2",
        "spacegroup": "Pnma",
        "formation_energy__eV": -2.0380000000000003,
        "E_above_hull__eV": 0.085,
        "band_gap__eV": 1.229,
        "has_bandstructure": false,
        "volume": 341.745,
        "Nsites": 24,
        "theoretical": true,
        "count": NaN,
        "density__gm_per_cc": 5.858,
        "crystal_system": "orthorhombic"
    },
    "mp-697": {
        "formula": "SnO2",
        "spacegroup": "Pa3",
        "formation_energy__eV": -2.023,
        "E_above_hull__eV": 0.10099999999999999,
        "band_gap__eV": 0.591,
        "has_bandstructure": true,
        "volume": 138.61,
        "Nsites": 12,
        "theoretical": false,
        "count": NaN,
        "density__gm_per_cc": 7.222,
        "crystal_system": "cubic"
    },
    "mp-1078644": {
        "formula": "SnO",
        "spacegroup": "Cmc21",
        "formation_energy__eV": -1.52,
        "E_above_hull__eV": 0.126,
        "band_gap__eV": 1.734,
        "has_bandstructure": true,
        "volume": 152.754,
        "Nsites": 8,
        "theoretical": false,
        "count": NaN,
        "density__gm_per_cc": 5.858,
        "crystal_system": "orthorhombic"
    },
    "mp-560417": {
        "formula": "SnO2",
        "spacegroup": "Pbca",
        "formation_energy__eV": -1.989,
        "E_above_hull__eV": 0.134,
        "band_gap__eV": 0.574,
        "has_bandstructure": true,
        "volume": 274.961,
        "Nsites": 24,
        "theoretical": true,
        "count": NaN,
        "density__gm_per_cc": 7.281000000000001,
        "crystal_system": "orthorhombic"
    },
    "mvc-11686": {
        "formula": "SnO2",
        "spacegroup": "R3m",
        "formation_energy__eV": -1.97,
        "E_above_hull__eV": 0.153,
        "band_gap__eV": 2.005,
        "has_bandstructure": true,
        "volume": 43.486999999999995,
        "Nsites": 3,
        "theoretical": true,
        "count": NaN,
        "density__gm_per_cc": 5.755,
        "crystal_system": "trigonal"
    },
    "mvc-9648": {
        "formula": "SnO2",
        "spacegroup": "R3m",
        "formation_energy__eV": -1.966,
        "E_above_hull__eV": 0.157,
        "band_gap__eV": 1.607,
        "has_bandstructure": true,
        "volume": 163.108,
        "Nsites": 12,
        "theoretical": true,
        "count": NaN,
        "density__gm_per_cc": 6.1370000000000005,
        "crystal_system": "trigonal"
    },
    "mvc-6946": {
        "formula": "SnO2",
        "spacegroup": "P63/mmc",
        "formation_energy__eV": -1.9609999999999999,
        "E_above_hull__eV": 0.162,
        "band_gap__eV": 2.101,
        "has_bandstructure": true,
        "volume": 97.529,
        "Nsites": 6,
        "theoretical": true,
        "count": NaN,
        "density__gm_per_cc": 5.132000000000001,
        "crystal_system": "hexagonal"
    },
    "mp-1245076": {
        "formula": "SnO",
        "spacegroup": "P1",
        "formation_energy__eV": -1.456,
        "E_above_hull__eV": 0.19,
        "band_gap__eV": 0.534,
        "has_bandstructure": false,
        "volume": 1801.981,
        "Nsites": 80,
        "theoretical": true,
        "count": NaN,
        "density__gm_per_cc": 4.965,
        "crystal_system": "triclinic"
    },
    "mvc-4323": {
        "formula": "SnO2",
        "spacegroup": "Fd3m",
        "formation_energy__eV": -1.932,
        "E_above_hull__eV": 0.191,
        "band_gap__eV": 1.841,
        "has_bandstructure": false,
        "volume": 185.11700000000002,
        "Nsites": 12,
        "theoretical": true,
        "count": NaN,
        "density__gm_per_cc": 5.4079999999999995,
        "crystal_system": "cubic"
    },
    "mp-1245329": {
        "formula": "SnO",
        "spacegroup": "P1",
        "formation_energy__eV": -1.449,
        "E_above_hull__eV": 0.19699999999999998,
        "band_gap__eV": 0.517,
        "has_bandstructure": false,
        "volume": 1725.604,
        "Nsites": 80,
        "theoretical": true,
        "count": NaN,
        "density__gm_per_cc": 5.185,
        "crystal_system": "triclinic"
    },
    "mvc-5316": {
        "formula": "SnO2",
        "spacegroup": "Cm",
        "formation_energy__eV": -1.901,
        "E_above_hull__eV": 0.223,
        "band_gap__eV": 0.7909999999999999,
        "has_bandstructure": false,
        "volume": 690.4939999999999,
        "Nsites": 48,
        "theoretical": true,
        "count": NaN,
        "density__gm_per_cc": 5.7989999999999995,
        "crystal_system": "monoclinic"
    },
    "mp-1245115": {
        "formula": "SnO",
        "spacegroup": "P1",
        "formation_energy__eV": -1.421,
        "E_above_hull__eV": 0.225,
        "band_gap__eV": 0.436,
        "has_bandstructure": false,
        "volume": 1786.4170000000001,
        "Nsites": 80,
        "theoretical": true,
        "count": NaN,
        "density__gm_per_cc": 5.0089999999999995,
        "crystal_system": "triclinic"
    },
    "mp-1245133": {
        "formula": "SnO",
        "spacegroup": "P1",
        "formation_energy__eV": -1.4069999999999998,
        "E_above_hull__eV": 0.239,
        "band_gap__eV": 0.48100000000000004,
        "has_bandstructure": false,
        "volume": 1764.94,
        "Nsites": 80,
        "theoretical": true,
        "count": NaN,
        "density__gm_per_cc": 5.07,
        "crystal_system": "triclinic"
    },
    "mp-12979": {
        "formula": "SnO2",
        "spacegroup": "Fm3m",
        "formation_energy__eV": -1.8780000000000001,
        "E_above_hull__eV": 0.24600000000000002,
        "band_gap__eV": 0.451,
        "has_bandstructure": true,
        "volume": 34.114000000000004,
        "Nsites": 3,
        "theoretical": true,
        "count": NaN,
        "density__gm_per_cc": 7.336,
        "crystal_system": "cubic"
    },
    "mvc-2282": {
        "formula": "Sn5O7",
        "spacegroup": "Cmcm",
        "formation_energy__eV": -1.6340000000000001,
        "E_above_hull__eV": 0.252,
        "band_gap__eV": 0.381,
        "has_bandstructure": true,
        "volume": 418.119,
        "Nsites": 24,
        "theoretical": true,
        "count": NaN,
        "density__gm_per_cc": 5.604,
        "crystal_system": "orthorhombic"
    },
    "mvc-5236": {
        "formula": "SnO2",
        "spacegroup": "P3m1",
        "formation_energy__eV": -1.8659999999999999,
        "E_above_hull__eV": 0.257,
        "band_gap__eV": 0.0,
        "has_bandstructure": false,
        "volume": 559.43,
        "Nsites": 36,
        "theoretical": true,
        "count": NaN,
        "density__gm_per_cc": 5.367999999999999,
        "crystal_system": "trigonal"
    },
    "mvc-427": {
        "formula": "Sn2O3",
        "spacegroup": "Cmcm",
        "formation_energy__eV": -1.6669999999999998,
        "E_above_hull__eV": 0.267,
        "band_gap__eV": 0.0,
        "has_bandstructure": true,
        "volume": 354.944,
        "Nsites": 20,
        "theoretical": true,
        "count": NaN,
        "density__gm_per_cc": 5.341,
        "crystal_system": "orthorhombic"
    },
    "mp-1245178": {
        "formula": "SnO2",
        "spacegroup": "P1",
        "formation_energy__eV": -1.847,
        "E_above_hull__eV": 0.276,
        "band_gap__eV": 0.265,
        "has_bandstructure": false,
        "volume": 1232.872,
        "Nsites": 90,
        "theoretical": true,
        "count": NaN,
        "density__gm_per_cc": 6.09,
        "crystal_system": "triclinic"
    },
    "mp-562610": {
        "formula": "SnO2",
        "spacegroup": "Pnma",
        "formation_energy__eV": -1.837,
        "E_above_hull__eV": 0.28600000000000003,
        "band_gap__eV": 0.439,
        "has_bandstructure": true,
        "volume": 138.513,
        "Nsites": 12,
        "theoretical": true,
        "count": NaN,
        "density__gm_per_cc": 7.227,
        "crystal_system": "orthorhombic"
    },
    "mvc-9896": {
        "formula": "SnO2",
        "spacegroup": "P3m1",
        "formation_energy__eV": -1.824,
        "E_above_hull__eV": 0.299,
        "band_gap__eV": 0.0,
        "has_bandstructure": false,
        "volume": 535.751,
        "Nsites": 36,
        "theoretical": true,
        "count": NaN,
        "density__gm_per_cc": 5.605,
        "crystal_system": "trigonal"
    },
    "mvc-6071": {
        "formula": "SnO2",
        "spacegroup": "Cmcm",
        "formation_energy__eV": -1.819,
        "E_above_hull__eV": 0.305,
        "band_gap__eV": 0.418,
        "has_bandstructure": true,
        "volume": 170.706,
        "Nsites": 12,
        "theoretical": true,
        "count": NaN,
        "density__gm_per_cc": 5.864,
        "crystal_system": "orthorhombic"
    },
    "mp-1179450": {
        "formula": "Sn3O4",
        "spacegroup": "P4/mnc",
        "formation_energy__eV": -1.495,
        "E_above_hull__eV": 0.358,
        "band_gap__eV": 0.0,
        "has_bandstructure": false,
        "volume": 553.5409999999999,
        "Nsites": 28,
        "theoretical": false,
        "count": NaN,
        "density__gm_per_cc": 5.041,
        "crystal_system": "tetragonal"
    },
    "mp-1065811": {
        "formula": "SnO",
        "spacegroup": "P4/mmm",
        "formation_energy__eV": -1.202,
        "E_above_hull__eV": 0.444,
        "band_gap__eV": 0.0,
        "has_bandstructure": true,
        "volume": 32.716,
        "Nsites": 2,
        "theoretical": true,
        "count": NaN,
        "density__gm_per_cc": 6.837000000000001,
        "crystal_system": "tetragonal"
    },
    "mp-999142": {
        "formula": "SnO",
        "spacegroup": "P4/nmm",
        "formation_energy__eV": -1.2,
        "E_above_hull__eV": 0.445,
        "band_gap__eV": 0.0,
        "has_bandstructure": true,
        "volume": 65.296,
        "Nsites": 4,
        "theoretical": true,
        "count": NaN,
        "density__gm_per_cc": 6.852,
        "crystal_system": "tetragonal"
    },
    "mp-1245282": {
        "formula": "SnO2",
        "spacegroup": "P1",
        "formation_energy__eV": -1.611,
        "E_above_hull__eV": 0.512,
        "band_gap__eV": 0.0,
        "has_bandstructure": false,
        "volume": 1454.9660000000001,
        "Nsites": 102,
        "theoretical": true,
        "count": NaN,
        "density__gm_per_cc": 5.848,
        "crystal_system": "triclinic"
    },
    "mp-1219002": {
        "formula": "Sn3O8",
        "spacegroup": "Immm",
        "formation_energy__eV": -1.203,
        "E_above_hull__eV": 0.534,
        "band_gap__eV": 0.0,
        "has_bandstructure": false,
        "volume": 156.668,
        "Nsites": 11,
        "theoretical": true,
        "count": NaN,
        "density__gm_per_cc": 5.131,
        "crystal_system": "orthorhombic"
    },
    "mp-1245027": {
        "formula": "SnO2",
        "spacegroup": "P1",
        "formation_energy__eV": -1.4580000000000002,
        "E_above_hull__eV": 0.665,
        "band_gap__eV": 0.0,
        "has_bandstructure": false,
        "volume": 1245.462,
        "Nsites": 90,
        "theoretical": true,
        "count": NaN,
        "density__gm_per_cc": 6.028,
        "crystal_system": "triclinic"
    },
    "mp-1245203": {
        "formula": "SnO2",
        "spacegroup": "P1",
        "formation_energy__eV": -1.454,
        "E_above_hull__eV": 0.669,
        "band_gap__eV": 0.6970000000000001,
        "has_bandstructure": false,
        "volume": 1315.237,
        "Nsites": 90,
        "theoretical": true,
        "count": NaN,
        "density__gm_per_cc": 5.707999999999999,
        "crystal_system": "triclinic"
    },
    "mp-1245116": {
        "formula": "SnO2",
        "spacegroup": "P1",
        "formation_energy__eV": -1.435,
        "E_above_hull__eV": 0.6890000000000001,
        "band_gap__eV": 0.0,
        "has_bandstructure": false,
        "volume": 1268.307,
        "Nsites": 90,
        "theoretical": true,
        "count": NaN,
        "density__gm_per_cc": 5.919,
        "crystal_system": "triclinic"
    },
    "mp-1244935": {
        "formula": "SnO2",
        "spacegroup": "P1",
        "formation_energy__eV": -1.416,
        "E_above_hull__eV": 0.7070000000000001,
        "band_gap__eV": 0.055999999999999994,
        "has_bandstructure": false,
        "volume": 1314.175,
        "Nsites": 90,
        "theoretical": true,
        "count": NaN,
        "density__gm_per_cc": 5.712999999999999,
        "crystal_system": "triclinic"
    },
    "mp-1245126": {
        "formula": "SnO2",
        "spacegroup": "P1",
        "formation_energy__eV": -1.37,
        "E_above_hull__eV": 0.753,
        "band_gap__eV": 0.358,
        "has_bandstructure": false,
        "volume": 1480.9070000000002,
        "Nsites": 102,
        "theoretical": true,
        "count": NaN,
        "density__gm_per_cc": 5.746,
        "crystal_system": "triclinic"
    },
    "mp-1244941": {
        "formula": "SnO2",
        "spacegroup": "P1",
        "formation_energy__eV": -1.359,
        "E_above_hull__eV": 0.765,
        "band_gap__eV": 0.316,
        "has_bandstructure": false,
        "volume": 1479.1729999999998,
        "Nsites": 102,
        "theoretical": true,
        "count": NaN,
        "density__gm_per_cc": 5.752000000000001,
        "crystal_system": "triclinic"
    },
    "mp-1244894": {
        "formula": "SnO2",
        "spacegroup": "P1",
        "formation_energy__eV": -1.321,
        "E_above_hull__eV": 0.802,
        "band_gap__eV": 0.0,
        "has_bandstructure": false,
        "volume": 1454.152,
        "Nsites": 102,
        "theoretical": true,
        "count": NaN,
        "density__gm_per_cc": 5.851,
        "crystal_system": "triclinic"
    },
    "mvc-13245": {
        "formula": "SnO2",
        "spacegroup": "P63/mmc",
        "formation_energy__eV": -0.27,
        "E_above_hull__eV": 1.8530000000000002,
        "band_gap__eV": 0.81,
        "has_bandstructure": false,
        "volume": 151.437,
        "Nsites": 6,
        "theoretical": true,
        "count": NaN,
        "density__gm_per_cc": 3.305,
        "crystal_system": "hexagonal"
    }
}