{
    "mp-2176": {
        "formula": "ZnTe",
        "spacegroup": "F43m",
        "formation_energy__eV": -0.473,
        "E_above_hull__eV": 0.0,
        "band_gap__eV": 1.078,
        "has_bandstructure": true,
        "volume": 59.146,
        "Nsites": 2,
        "theoretical": false,
        "count": 7.0,
        "density__gm_per_cc": 5.419,
        "crystal_system": "cubic"
    },
    "mp-571195": {
        "formula": "ZnTe",
        "spacegroup": "P31",
        "formation_energy__eV": -0.47,
        "E_above_hull__eV": 0.004,
        "band_gap__eV": 1.068,
        "has_bandstructure": true,
        "volume": 177.25599999999997,
        "Nsites": 6,
        "theoretical": false,
        "count": NaN,
        "density__gm_per_cc": 5.4239999999999995,
        "crystal_system": "trigonal"
    },
    "mp-8884": {
        "formula": "ZnTe",
        "spacegroup": "P63mc",
        "formation_energy__eV": -0.46799999999999997,
        "E_above_hull__eV": 0.005,
        "band_gap__eV": 1.1,
        "has_bandstructure": true,
        "volume": 118.488,
        "Nsites": 4,
        "theoretical": true,
        "count": NaN,
        "density__gm_per_cc": 5.41,
        "crystal_system": "hexagonal"
    },
    "mp-9281": {
        "formula": "ZnTe",
        "spacegroup": "P6422",
        "formation_energy__eV": -0.32299999999999995,
        "E_above_hull__eV": 0.15,
        "band_gap__eV": 0.28800000000000003,
        "has_bandstructure": true,
        "volume": 160.131,
        "Nsites": 6,
        "theoretical": true,
        "count": NaN,
        "density__gm_per_cc": 6.004,
        "crystal_system": "hexagonal"
    },
    "mp-1071319": {
        "formula": "ZnTe",
        "spacegroup": "P3121",
        "formation_energy__eV": -0.322,
        "E_above_hull__eV": 0.152,
        "band_gap__eV": 0.294,
        "has_bandstructure": true,
        "volume": 160.40200000000002,
        "Nsites": 6,
        "theoretical": false,
        "count": NaN,
        "density__gm_per_cc": 5.994,
        "crystal_system": "trigonal"
    },
    "mp-541441": {
        "formula": "ZnTe",
        "spacegroup": "Cmcm",
        "formation_energy__eV": -0.20800000000000002,
        "E_above_hull__eV": 0.266,
        "band_gap__eV": 0.0,
        "has_bandstructure": true,
        "volume": 101.12200000000001,
        "Nsites": 4,
        "theoretical": false,
        "count": NaN,
        "density__gm_per_cc": 6.3389999999999995,
        "crystal_system": "orthorhombic"
    },
    "mp-948": {
        "formula": "ZnTe",
        "spacegroup": "Fm3m",
        "formation_energy__eV": -0.185,
        "E_above_hull__eV": 0.289,
        "band_gap__eV": 0.0,
        "has_bandstructure": true,
        "volume": 48.038000000000004,
        "Nsites": 2,
        "theoretical": false,
        "count": NaN,
        "density__gm_per_cc": 6.672000000000001,
        "crystal_system": "cubic"
    }
}