   2   2   0   0
  0.2044081E+02  0.3866765E-09  0.3866765E-09  0.3866765E-09  0.1500000E-15
  1.000000000000000E-004
  CAR 
 unknown system                          
     16.96344427     -7.09074622  301      5.43747799      1.00000000
     -7.091  0.0000E+00  0.0000E+00
     -7.011  0.0000E+00  0.0000E+00
     -6.930  0.0000E+00  0.0000E+00
     -6.850  0.0000E+00  0.0000E+00
     -6.770  0.0000E+00  0.0000E+00
     -6.690  0.0000E+00  0.0000E+00
     -6.610  0.0000E+00  0.0000E+00
     -6.529  0.0000E+00  0.0000E+00
     -6.449  0.0000E+00  0.0000E+00
     -6.369  0.0000E+00  0.0000E+00
     -6.289  0.0000E+00  0.0000E+00
     -6.209  0.0000E+00  0.0000E+00
     -6.129  0.0000E+00  0.0000E+00
     -6.048  0.1203E-03  0.9645E-05
     -5.968  0.7641E+00  0.6127E-01
     -5.888  0.1529E-01  0.6250E-01
     -5.808  0.0000E+00  0.6250E-01
     -5.728  0.0000E+00  0.6250E-01
     -5.647  0.0000E+00  0.6250E-01
     -5.567  0.5740E-11  0.6250E-01
     -5.487  0.2520E+00  0.8270E-01
     -5.407  0.2086E+01  0.2500E+00
     -5.327  0.1096E-04  0.2500E+00
     -5.247  0.0000E+00  0.2500E+00
     -5.166  0.0000E+00  0.2500E+00
     -5.086  0.3894E-15  0.2500E+00
     -5.006  0.1536E-01  0.2512E+00
     -4.926  0.2321E+01  0.4374E+00
     -4.846  0.1666E-02  0.4375E+00
     -4.766  0.0000E+00  0.4375E+00
     -4.685  0.0000E+00  0.4375E+00
     -4.605  0.8560E-06  0.4375E+00
     -4.525  0.6432E+00  0.4891E+00
     -4.445  0.9060E+00  0.5617E+00
     -4.365  0.1569E+01  0.6875E+00
     -4.284  0.2011E-06  0.6875E+00
     -4.204  0.0000E+00  0.6875E+00
     -4.124  0.2234E-11  0.6875E+00
     -4.044  0.3328E+00  0.7142E+00
     -3.964  0.4344E+01  0.1062E+01
     -3.884  0.3566E-03  0.1063E+01
     -3.803  0.2286E+01  0.1246E+01
     -3.723  0.5200E-01  0.1250E+01
     -3.643  0.0000E+00  0.1250E+01
     -3.563  0.0000E+00  0.1250E+01
     -3.483  0.0000E+00  0.1250E+01
     -3.402  0.3270E-05  0.1250E+01
     -3.322  0.1959E+01  0.1407E+01
     -3.242  0.3799E+00  0.1437E+01
     -3.162  0.0000E+00  0.1438E+01
     -3.082  0.5192E-15  0.1438E+01
     -3.002  0.1693E-01  0.1439E+01
     -2.921  0.2320E+01  0.1625E+01
     -2.841  0.8618E-02  0.1626E+01
     -2.761  0.4654E+01  0.1999E+01
     -2.681  0.1586E-01  0.2000E+01
     -2.601  0.0000E+00  0.2000E+01
     -2.520  0.0000E+00  0.2000E+01
     -2.440  0.0000E+00  0.2000E+01
     -2.360  0.0000E+00  0.2000E+01
     -2.280  0.0000E+00  0.2000E+01
     -2.200  0.0000E+00  0.2000E+01
     -2.120  0.0000E+00  0.2000E+01
     -2.039  0.0000E+00  0.2000E+01
     -1.959  0.0000E+00  0.2000E+01
     -1.879  0.0000E+00  0.2000E+01
     -1.799  0.0000E+00  0.2000E+01
     -1.719  0.0000E+00  0.2000E+01
     -1.638  0.0000E+00  0.2000E+01
     -1.558  0.0000E+00  0.2000E+01
     -1.478  0.0000E+00  0.2000E+01
     -1.398  0.0000E+00  0.2000E+01
     -1.318  0.5994E-04  0.2000E+01
     -1.238  0.4340E+01  0.2348E+01
     -1.157  0.1738E+01  0.2487E+01
     -1.077  0.9484E+00  0.2563E+01
     -0.997  0.2329E+01  0.2750E+01
     -0.917  0.2330E+01  0.2937E+01
     -0.837  0.6798E-02  0.2938E+01
     -0.756  0.0000E+00  0.2938E+01
     -0.676  0.0000E+00  0.2938E+01
     -0.596  0.0000E+00  0.2938E+01
     -0.516  0.0000E+00  0.2938E+01
     -0.436  0.0000E+00  0.2938E+01
     -0.356  0.1636E-12  0.2938E+01
     -0.275  0.4452E-01  0.2941E+01
     -0.195  0.9102E+00  0.3014E+01
     -0.115  0.4501E+01  0.3375E+01
     -0.035  0.2355E-03  0.3375E+01
      0.045  0.0000E+00  0.3375E+01
      0.126  0.0000E+00  0.3375E+01
      0.206  0.0000E+00  0.3375E+01
      0.286  0.0000E+00  0.3375E+01
      0.366  0.0000E+00  0.3375E+01
      0.446  0.0000E+00  0.3375E+01
      0.526  0.0000E+00  0.3375E+01
      0.607  0.1206E-10  0.3375E+01
      0.687  0.3010E+00  0.3399E+01
      0.767  0.2037E+01  0.3562E+01
      0.847  0.6666E-05  0.3562E+01
      0.927  0.1350E-13  0.3563E+01
      1.007  0.4710E-01  0.3566E+01
      1.088  0.2291E+01  0.3750E+01
      1.168  0.3461E-03  0.3750E+01
      1.248  0.0000E+00  0.3750E+01
      1.328  0.0000E+00  0.3750E+01
      1.408  0.0000E+00  0.3750E+01
      1.489  0.0000E+00  0.3750E+01
      1.569  0.2751E-07  0.3750E+01
      1.649  0.2276E+01  0.3932E+01
      1.729  0.4588E+01  0.4300E+01
      1.809  0.1513E+00  0.4312E+01
      1.889  0.0000E+00  0.4312E+01
      1.970  0.0000E+00  0.4312E+01
      2.050  0.0000E+00  0.4312E+01
      2.130  0.0000E+00  0.4312E+01
      2.210  0.5912E-03  0.4313E+01
      2.290  0.2305E+01  0.4497E+01
      2.371  0.3477E+01  0.4776E+01
      2.451  0.3563E+01  0.5062E+01
      2.531  0.7790E-02  0.5062E+01
      2.611  0.1298E-14  0.5062E+01
      2.691  0.3437E-01  0.5065E+01
      2.771  0.4640E+01  0.5437E+01
      2.852  0.2896E-02  0.5438E+01
      2.932  0.4694E-04  0.5438E+01
      3.012  0.3910E+01  0.5751E+01
      3.092  0.7671E+00  0.5812E+01
      3.172  0.0000E+00  0.5812E+01
      3.253  0.3114E-11  0.5813E+01
      3.333  0.2223E+00  0.5830E+01
      3.413  0.4452E+01  0.6187E+01
      3.493  0.2330E+01  0.6374E+01
      3.573  0.1078E-01  0.6375E+01
      3.653  0.1247E-06  0.6375E+01
      3.734  0.2776E+01  0.6598E+01
      3.814  0.4237E+01  0.6937E+01
      3.894  0.2024E-02  0.6938E+01
      3.974  0.6448E-04  0.6938E+01
      4.054  0.7853E+00  0.7000E+01
      4.135  0.2332E+01  0.7187E+01
      4.215  0.7499E-03  0.7188E+01
      4.295  0.1788E-01  0.7189E+01
      4.375  0.2559E+01  0.7394E+01
      4.455  0.2100E+01  0.7562E+01
      4.535  0.2274E+00  0.7581E+01
      4.616  0.1332E+01  0.7687E+01
      4.696  0.3060E-05  0.7688E+01
      4.776  0.1253E-07  0.7688E+01
      4.856  0.1123E+01  0.7778E+01
      4.936  0.1215E+01  0.7875E+01
      5.017  0.2229E-07  0.7875E+01
      5.097  0.0000E+00  0.7875E+01
      5.177  0.0000E+00  0.7875E+01
      5.257  0.1927E-07  0.7875E+01
      5.337  0.8381E+00  0.7942E+01
      5.417  0.7208E+00  0.8000E+01
      5.498  0.0000E+00  0.8000E+01
      5.578  0.0000E+00  0.8000E+01
      5.658  0.0000E+00  0.8000E+01
      5.738  0.0000E+00  0.8000E+01
      5.818  0.0000E+00  0.8000E+01
      5.899  0.0000E+00  0.8000E+01
      5.979  0.0000E+00  0.8000E+01
      6.059  0.0000E+00  0.8000E+01
      6.139  0.0000E+00  0.8000E+01
      6.219  0.0000E+00  0.8000E+01
      6.299  0.0000E+00  0.8000E+01
      6.380  0.0000E+00  0.8000E+01
      6.460  0.3038E-09  0.8000E+01
      6.540  0.6019E+00  0.8048E+01
      6.620  0.1737E+01  0.8187E+01
      6.700  0.6098E-06  0.8188E+01
      6.781  0.0000E+00  0.8188E+01
      6.861  0.0000E+00  0.8188E+01
      6.941  0.6944E-03  0.8188E+01
      7.021  0.2308E+01  0.8373E+01
      7.101  0.2970E-01  0.8375E+01
      7.181  0.8476E-02  0.8376E+01
      7.262  0.7707E+00  0.8437E+01
      7.342  0.2878E-03  0.8438E+01
      7.422  0.2355E-03  0.8438E+01
      7.502  0.2279E+01  0.8620E+01
      7.582  0.2136E+00  0.8637E+01
      7.662  0.2184E+01  0.8812E+01
      7.743  0.1658E+00  0.8826E+01
      7.823  0.4507E+01  0.9187E+01
      7.903  0.4581E-02  0.9188E+01
      7.983  0.6886E-01  0.9193E+01
      8.063  0.5024E+01  0.9596E+01
      8.144  0.3634E+00  0.9625E+01
      8.224  0.3433E-03  0.9625E+01
      8.304  0.2291E+01  0.9809E+01
      8.384  0.4734E-01  0.9813E+01
      8.464  0.4158E+00  0.9846E+01
      8.544  0.6471E+01  0.1036E+02
      8.625  0.1674E+01  0.1050E+02
      8.705  0.1364E-01  0.1050E+02
      8.785  0.0000E+00  0.1050E+02
      8.865  0.0000E+00  0.1050E+02
      8.945  0.0000E+00  0.1050E+02
      9.026  0.8254E-03  0.1050E+02
      9.106  0.2597E+01  0.1071E+02
      9.186  0.5956E+01  0.1119E+02
      9.266  0.2577E+01  0.1139E+02
      9.346  0.2120E+01  0.1156E+02
      9.426  0.5486E-01  0.1157E+02
      9.507  0.2283E+01  0.1175E+02
      9.587  0.2700E-03  0.1175E+02
      9.667  0.1538E-02  0.1175E+02
      9.747  0.2321E+01  0.1194E+02
      9.827  0.1642E-01  0.1194E+02
      9.908  0.4281E+01  0.1228E+02
      9.988  0.3956E+00  0.1231E+02
     10.068  0.8324E-07  0.1231E+02
     10.148  0.1428E+01  0.1243E+02
     10.228  0.9101E+00  0.1250E+02
     10.308  0.0000E+00  0.1250E+02
     10.389  0.0000E+00  0.1250E+02
     10.469  0.0000E+00  0.1250E+02
     10.549  0.1499E-02  0.1250E+02
     10.629  0.4619E+01  0.1287E+02
     10.709  0.5630E-01  0.1288E+02
     10.790  0.5670E-02  0.1288E+02
     10.870  0.4652E+01  0.1325E+02
     10.950  0.1956E-01  0.1325E+02
     11.030  0.1756E+01  0.1339E+02
     11.110  0.2920E+01  0.1362E+02
     11.190  0.7785E-03  0.1362E+02
     11.271  0.0000E+00  0.1362E+02
     11.351  0.0000E+00  0.1362E+02
     11.431  0.4660E-05  0.1363E+02
     11.511  0.4036E+01  0.1395E+02
     11.591  0.2980E+01  0.1419E+02
     11.672  0.1982E-04  0.1419E+02
     11.752  0.0000E+00  0.1419E+02
     11.832  0.0000E+00  0.1419E+02
     11.912  0.0000E+00  0.1419E+02
     11.992  0.0000E+00  0.1419E+02
     12.072  0.0000E+00  0.1419E+02
     12.153  0.0000E+00  0.1419E+02
     12.233  0.0000E+00  0.1419E+02
     12.313  0.0000E+00  0.1419E+02
     12.393  0.0000E+00  0.1419E+02
     12.473  0.0000E+00  0.1419E+02
     12.554  0.0000E+00  0.1419E+02
     12.634  0.0000E+00  0.1419E+02
     12.714  0.0000E+00  0.1419E+02
     12.794  0.3881E-05  0.1419E+02
     12.874  0.6974E+00  0.1424E+02
     12.954  0.5666E+00  0.1429E+02
     13.035  0.6439E+01  0.1481E+02
     13.115  0.9156E-01  0.1481E+02
     13.195  0.0000E+00  0.1481E+02
     13.275  0.0000E+00  0.1481E+02
     13.355  0.0000E+00  0.1481E+02
     13.435  0.4362E-04  0.1481E+02
     13.516  0.2851E+01  0.1504E+02
     13.596  0.2669E+00  0.1506E+02
     13.676  0.1298E-15  0.1506E+02
     13.756  0.8023E-02  0.1506E+02
     13.836  0.2708E+01  0.1528E+02
     13.917  0.1960E+01  0.1544E+02
     13.997  0.3224E-05  0.1544E+02
     14.077  0.0000E+00  0.1544E+02
     14.157  0.0000E+00  0.1544E+02
     14.237  0.0000E+00  0.1544E+02
     14.317  0.0000E+00  0.1544E+02
     14.398  0.0000E+00  0.1544E+02
     14.478  0.0000E+00  0.1544E+02
     14.558  0.0000E+00  0.1544E+02
     14.638  0.0000E+00  0.1544E+02
     14.718  0.0000E+00  0.1544E+02
     14.799  0.0000E+00  0.1544E+02
     14.879  0.0000E+00  0.1544E+02
     14.959  0.0000E+00  0.1544E+02
     15.039  0.0000E+00  0.1544E+02
     15.119  0.0000E+00  0.1544E+02
     15.199  0.0000E+00  0.1544E+02
     15.280  0.0000E+00  0.1544E+02
     15.360  0.0000E+00  0.1544E+02
     15.440  0.1375E-08  0.1544E+02
     15.520  0.7938E+00  0.1550E+02
     15.600  0.3643E+01  0.1579E+02
     15.681  0.2405E+00  0.1581E+02
     15.761  0.1246E-13  0.1581E+02
     15.841  0.4588E-01  0.1582E+02
     15.921  0.2292E+01  0.1600E+02
     16.001  0.3609E-03  0.1600E+02
     16.081  0.0000E+00  0.1600E+02
     16.162  0.0000E+00  0.1600E+02
     16.242  0.0000E+00  0.1600E+02
     16.322  0.0000E+00  0.1600E+02
     16.402  0.0000E+00  0.1600E+02
     16.482  0.0000E+00  0.1600E+02
     16.563  0.0000E+00  0.1600E+02
     16.643  0.0000E+00  0.1600E+02
     16.723  0.0000E+00  0.1600E+02
     16.803  0.0000E+00  0.1600E+02
     16.883  0.0000E+00  0.1600E+02
     16.963  0.0000E+00  0.1600E+02
