    2    2    1    1
  0.2044081E+02  0.3866764E-09  0.3866764E-09  0.3866764E-09  0.1500000E-15
  1.000000000000000E-004
  CAR 
 unknown system                          
      8     10      8
 
  0.1250000E+00  0.1250000E+00  0.1250000E+00  0.3125000E-01
    1       -5.997374   1.000000
    2        4.027450   1.000000
    3        5.335917   1.000000
    4        5.335917   1.000000
    5        8.062144   0.000000
    6        8.591052   0.000000
    7        8.591059   0.000000
    8       12.856532   0.000000
 
  0.3750000E+00  0.1250000E+00  0.1250000E+00  0.9375000E-01
    1       -4.970977   1.000000
    2        1.036502   1.000000
    3        3.351472   1.000000
    4        4.856867   1.000000
    5        8.274962   0.000000
    6        9.280419   0.000000
    7        9.454566   0.000000
    8       15.526046   0.000000
 
 -0.3750000E+00  0.1250000E+00  0.1250000E+00  0.9375000E-01
    1       -3.831760   1.000000
    2       -1.040603   1.000000
    3        3.372512   1.000000
    4        4.086269   1.000000
    5        7.782023   0.000000
    6        9.107609   0.000000
    7        9.712439   0.000000
    8       15.870072   0.000000
 
 -0.1250000E+00  0.1250000E+00  0.1250000E+00  0.9375000E-01
    1       -5.469618   1.000000
    2        2.412378   1.000000
    3        4.329204   1.000000
    4        4.393020   1.000000
    5        7.763734   0.000000
    6        9.244404   0.000000
    7       10.144110   0.000000
    8       13.009693   0.000000
 
  0.3750000E+00  0.3750000E+00  0.1250000E+00  0.9375000E-01
    1       -4.438530   1.000000
    2        0.702791   1.000000
    3        3.003292   1.000000
    4        3.456274   1.000000
    5        6.989434   0.000000
    6        8.521891   0.000000
    7       11.530507   0.000000
    8       15.582477   0.000000
 
 -0.3750000E+00  0.3750000E+00  0.1250000E+00  0.1875000E+00
    1       -2.799281   1.000000
    2       -1.258214   1.000000
    3        1.649417   1.000000
    4        2.725794   1.000000
    5        8.014007   0.000000
    6        9.888104   0.000000
    7       10.832423   0.000000
    8       12.972254   0.000000
 
 -0.1250000E+00  0.3750000E+00  0.1250000E+00  0.1875000E+00
    1       -4.023133   1.000000
    2       -0.170028   1.000000
    3        2.361659   1.000000
    4        3.730390   1.000000
    5        8.483355   0.000000
    6        9.148966   0.000000
    7       10.597270   0.000000
    8       11.498215   0.000000
 
 -0.3750000E+00 -0.3750000E+00  0.1250000E+00  0.9375000E-01
    1       -2.966955   1.000000
    2       -1.160935   1.000000
    3        2.259390   1.000000
    4        2.989946   1.000000
    5        6.549174   0.000000
    6        7.603623   0.000000
    7       13.794452   0.000000
    8       13.850280   0.000000
 
  0.3750000E+00  0.3750000E+00  0.3750000E+00  0.3125000E-01
    1       -4.538191   1.000000
    2       -0.253056   1.000000
    3        4.550357   1.000000
    4        4.550357   1.000000
    5        7.213860   0.000000
    6        9.071868   0.000000
    7        9.071868   0.000000
    8       13.491388   0.000000
 
 -0.3750000E+00  0.3750000E+00  0.3750000E+00  0.9375000E-01
    1       -3.336178   1.000000
    2       -0.955843   1.000000
    3        1.707680   1.000000
    4        3.769516   1.000000
    5        7.474519   0.000000
    6       11.021020   0.000000
    7       11.062128   0.000000
    8       13.497539   0.000000
