Automatically generated mesh
      10
Reciprocal lattice
    0.12500000000000    0.12500000000000    0.12500000000000            96
    0.37500000000000    0.12500000000000    0.12500000000000           288
   -0.37500000000000    0.12500000000000    0.12500000000000           288
   -0.12500000000000    0.12500000000000    0.12500000000000           288
    0.37500000000000    0.37500000000000    0.12500000000000           288
   -0.37500000000000    0.37500000000000    0.12500000000000           576
   -0.12500000000000    0.37500000000000    0.12500000000000           576
   -0.37500000000000   -0.37500000000000    0.12500000000000           288
    0.37500000000000    0.37500000000000    0.37500000000000            96
   -0.37500000000000    0.37500000000000    0.37500000000000           288
