       N       E                     dE             d eps       ncg     rms          rms(c)
RMM:   1     0.290051598922E+02    0.29005E+02   -0.16397E+03    80   0.515E+02
RMM:   2     0.412607633052E-02   -0.29001E+02   -0.28345E+02    80   0.111E+02
RMM:   3    -0.777880951914E+01   -0.77829E+01   -0.57097E+01    80   0.402E+01
RMM:   4    -0.102608828146E+02   -0.24821E+01   -0.12881E+01    80   0.223E+01
RMM:   5    -0.108069132261E+02   -0.54603E+00   -0.38044E+00    80   0.111E+01
RMM:   6    -0.109444442989E+02   -0.13753E+00   -0.11777E+00    80   0.599E+00
RMM:   7    -0.110107656392E+02   -0.66321E-01   -0.62146E-01   196   0.314E+00
RMM:   8    -0.110163755788E+02   -0.56099E-02   -0.46082E-02   205   0.921E-01
RMM:   9    -0.110166403384E+02   -0.26476E-03   -0.23056E-03   213   0.209E-01    0.474E+00
RMM:  10    -0.109005076604E+02    0.11613E+00   -0.49130E-02   183   0.132E+00    0.290E+00
RMM:  11    -0.108468387561E+02    0.53669E-01   -0.10733E-01   180   0.204E+00    0.168E-01
RMM:  12    -0.108478531969E+02   -0.10144E-02   -0.20998E-03   196   0.320E-01    0.767E-02
RMM:  13    -0.108480483553E+02   -0.19516E-03   -0.27052E-04   196   0.123E-01    0.542E-02
RMM:  14    -0.108480743139E+02   -0.25959E-04   -0.47725E-05   199   0.516E-02    0.431E-03
RMM:  15    -0.108480743186E+02   -0.47444E-08   -0.37459E-06   182   0.144E-02
   1 F= -.10848074E+02 E0= -.10848074E+02  d E =-.445984E-14
