<?xml version="1.0" encoding="ISO-8859-1"?>
<modeling>
 <generator>
  <i name="program" type="string">vasp </i>
  <i name="version" type="string">5.4.4.18Apr17-6-g9f103f2a35  </i>
  <i name="subversion" type="string">(build Mar 10 2023 13:05:35) complex            parallel </i>
  <i name="platform" type="string">LinuxIFC </i>
  <i name="date" type="string">2023 03 27 </i>
  <i name="time" type="string">12:05:40 </i>
 </generator>
 <incar>
  <i type="string" name="PREC">accurate</i>
  <i type="string" name="ALGO"> Very_Fast</i>
  <i type="int" name="NELM">   500</i>
  <i type="int" name="NELMDL">    -9</i>
  <i type="int" name="NELMIN">     6</i>
  <i type="int" name="IBRION">    -1</i>
  <i name="EDIFF">      0.00000100</i>
  <i name="EDIFFG">     -0.01000000</i>
  <i type="int" name="NSW">     0</i>
  <i type="int" name="ISIF">     3</i>
  <i type="int" name="ISYM">     2</i>
  <i name="ENCUT">    400.00000000</i>
  <i name="POTIM">      0.15000000</i>
  <i type="string" name="LREAL"> Auto</i>
  <i type="logical" name="LPLANE"> T  </i>
  <i type="int" name="ISMEAR">     0</i>
  <i name="SIGMA">      0.02000000</i>
  <i type="logical" name="LWAVE"> F  </i>
  <i type="logical" name="LCHARG"> F  </i>
  <v type="int" name="KPOINT_BSE">    -1     0     0     0</v>
  <i type="int" name="NELM">   500</i>
  <i type="string" name="GGA"> PE</i>
 </incar>
 <structure name="primitive_cell" >
  <crystal>
   <varray name="basis" >
    <v>       0.00000000       2.73421540       2.73421540 </v>
    <v>       2.73421540       0.00000000       2.73421540 </v>
    <v>       2.73421540       2.73421540       0.00000000 </v>
   </varray>
   <i name="volume">     40.88162679 </i>
   <varray name="rec_basis" >
    <v>      -0.18286782       0.18286782       0.18286782 </v>
    <v>       0.18286782      -0.18286782       0.18286782 </v>
    <v>       0.18286782       0.18286782      -0.18286782 </v>
   </varray>
  </crystal>
  <varray name="positions" >
   <v>       0.00000000       0.00000000       0.00000000 </v>
   <v>       0.25000000       0.25000000       0.25000000 </v>
  </varray>
 </structure>
 <varray name="primitive_index" >
  <v type="int" >        1 </v>
  <v type="int" >        2 </v>
 </varray>
 <kpoints>
  <generation param="Monkhorst-Pack">
   <v type="int" name="divisions">       4        4        4 </v>
   <v name="usershift">      0.00000000       0.00000000       0.00000000 </v>
   <v name="genvec1">      0.25000000       0.00000000       0.00000000 </v>
   <v name="genvec2">      0.00000000       0.25000000       0.00000000 </v>
   <v name="genvec3">      0.00000000       0.00000000       0.25000000 </v>
   <v name="shift">      0.50000000       0.50000000       0.50000000 </v>
  </generation>
  <varray name="kpointlist" >
   <v>       0.12500000       0.12500000       0.12500000 </v>
   <v>       0.37500000       0.12500000       0.12500000 </v>
   <v>      -0.37500000       0.12500000       0.12500000 </v>
   <v>      -0.12500000       0.12500000       0.12500000 </v>
   <v>       0.37500000       0.37500000       0.12500000 </v>
   <v>      -0.37500000       0.37500000       0.12500000 </v>
   <v>      -0.12500000       0.37500000       0.12500000 </v>
   <v>      -0.37500000      -0.37500000       0.12500000 </v>
   <v>       0.37500000       0.37500000       0.37500000 </v>
   <v>      -0.37500000       0.37500000       0.37500000 </v>
  </varray>
  <varray name="weights" >
   <v>       0.03125000 </v>
   <v>       0.09375000 </v>
   <v>       0.09375000 </v>
   <v>       0.09375000 </v>
   <v>       0.09375000 </v>
   <v>       0.18750000 </v>
   <v>       0.18750000 </v>
   <v>       0.09375000 </v>
   <v>       0.03125000 </v>
   <v>       0.09375000 </v>
  </varray>
 </kpoints>
 <parameters>
  <separator name="general" >
   <i type="string" name="SYSTEM">unknown system</i>
   <i type="logical" name="LCOMPAT"> F  </i>
  </separator>
  <separator name="electronic" >
   <i type="string" name="PREC">accura</i>
   <i name="ENMAX">    400.00000000</i>
   <i name="ENAUG">    322.06900000</i>
   <i name="EDIFF">      0.00000100</i>
   <i type="int" name="IALGO">    48</i>
   <i type="int" name="IWAVPR">    10</i>
   <i type="int" name="NBANDS">     8</i>
   <i name="NELECT">      8.00000000</i>
   <i type="int" name="TURBO">     0</i>
   <i type="int" name="IRESTART">     0</i>
   <i type="int" name="NREBOOT">     0</i>
   <i type="int" name="NMIN">     0</i>
   <i name="EREF">      0.00000000</i>
   <separator name="electronic smearing" >
    <i type="int" name="ISMEAR">     0</i>
    <i name="SIGMA">      0.02000000</i>
    <i name="KSPACING">      0.50000000</i>
    <i type="logical" name="KGAMMA"> T  </i>
   </separator>
   <separator name="electronic projectors" >
    <i type="logical" name="LREAL"> T  </i>
    <v name="ROPT">     -0.00025000</v>
    <i type="int" name="LMAXPAW">  -100</i>
    <i type="int" name="LMAXMIX">     2</i>
    <i type="logical" name="NLSPLINE"> F  </i>
   </separator>
   <separator name="electronic startup" >
    <i type="int" name="ISTART">     0</i>
    <i type="int" name="ICHARG">     2</i>
    <i type="int" name="INIWAV">     1</i>
   </separator>
   <separator name="electronic spin" >
    <i type="int" name="ISPIN">     1</i>
    <i type="logical" name="LNONCOLLINEAR"> F  </i>
    <v name="MAGMOM">      1.00000000      1.00000000</v>
    <i name="NUPDOWN">     -1.00000000</i>
    <i type="logical" name="LSORBIT"> F  </i>
    <v name="SAXIS">      0.00000000      0.00000000      1.00000000</v>
    <i type="logical" name="LSPIRAL"> F  </i>
    <v name="QSPIRAL">      0.00000000      0.00000000      0.00000000</v>
    <i type="logical" name="LZEROZ"> F  </i>
   </separator>
   <separator name="electronic exchange-correlation" >
    <i type="logical" name="LASPH"> F  </i>
    <i type="logical" name="LMETAGGA"> F  </i>
   </separator>
   <separator name="electronic convergence" >
    <i type="int" name="NELM">   500</i>
    <i type="int" name="NELMDL">    -9</i>
    <i type="int" name="NELMIN">     6</i>
    <i name="ENINI">    400.00000000</i>
    <separator name="electronic convergence detail" >
     <i type="logical" name="LDIAG"> T  </i>
     <i type="logical" name="LSUBROT"> F  </i>
     <i name="WEIMIN">      0.00000000</i>
     <i name="EBREAK">      0.00000003</i>
     <i name="DEPER">      0.30000000</i>
     <i type="int" name="NRMM">     4</i>
     <i name="TIME">      0.40000000</i>
    </separator>
   </separator>
   <separator name="electronic mixer" >
    <i name="AMIX">      0.40000000</i>
    <i name="BMIX">      1.00000000</i>
    <i name="AMIN">      0.10000000</i>
    <i name="AMIX_MAG">      1.60000000</i>
    <i name="BMIX_MAG">      1.00000000</i>
    <separator name="electronic mixer details" >
     <i type="int" name="IMIX">     4</i>
     <i type="logical" name="MIXFIRST"> F  </i>
     <i type="int" name="MAXMIX">   -45</i>
     <i name="WC">    100.00000000</i>
     <i type="int" name="INIMIX">     1</i>
     <i type="int" name="MIXPRE">     1</i>
     <i type="int" name="MREMOVE">     5</i>
    </separator>
   </separator>
   <separator name="electronic dipolcorrection" >
    <i type="logical" name="LDIPOL"> F  </i>
    <i type="logical" name="LMONO"> F  </i>
    <i type="int" name="IDIPOL">     0</i>
    <i name="EPSILON">      1.00000000</i>
    <v name="DIPOL">   -100.00000000   -100.00000000   -100.00000000</v>
    <i name="EFIELD">      0.00000000</i>
   </separator>
  </separator>
  <separator name="grids" >
   <i type="int" name="NGX">    28</i>
   <i type="int" name="NGY">    28</i>
   <i type="int" name="NGZ">    28</i>
   <i type="int" name="NGXF">    56</i>
   <i type="int" name="NGYF">    56</i>
   <i type="int" name="NGZF">    56</i>
   <i type="logical" name="ADDGRID"> F  </i>
  </separator>
  <separator name="ionic" >
   <i type="int" name="NSW">     0</i>
   <i type="int" name="IBRION">    -1</i>
   <i type="int" name="MDALGO">     0</i>
   <i type="int" name="ISIF">     3</i>
   <i name="PSTRESS">      0.00000000</i>
   <i name="EDIFFG">     -0.01000000</i>
   <i type="int" name="NFREE">     0</i>
   <i name="POTIM">      0.15000000</i>
   <i name="SMASS">     -3.00000000</i>
   <i name="SCALEE">      1.00000000</i>
  </separator>
  <separator name="ionic md" >
   <i name="TEBEG">      0.00010000</i>
   <i name="TEEND">      0.00010000</i>
   <i type="int" name="NBLOCK">     1</i>
   <i type="int" name="KBLOCK">     1</i>
   <i type="int" name="NPACO">   256</i>
   <i name="APACO">     16.00000000</i>
  </separator>
  <separator name="symmetry" >
   <i type="int" name="ISYM">     2</i>
   <i name="SYMPREC">      0.00001000</i>
  </separator>
  <separator name="dos" >
   <i type="int" name="LORBIT">     0</i>
   <v name="RWIGS">     -1.00000000</v>
   <i type="int" name="NEDOS">   301</i>
   <i name="EMIN">     10.00000000</i>
   <i name="EMAX">    -10.00000000</i>
   <i name="EFERMI">      0.00000000</i>
  </separator>
  <separator name="writing" >
   <i type="int" name="NWRITE">     2</i>
   <i type="logical" name="LWAVE"> F  </i>
   <i type="logical" name="LDOWNSAMPLE"> F  </i>
   <i type="logical" name="LCHARG"> F  </i>
   <i type="logical" name="LPARD"> F  </i>
   <i type="logical" name="LVTOT"> F  </i>
   <i type="logical" name="LVHAR"> F  </i>
   <i type="logical" name="LELF"> F  </i>
   <i type="logical" name="LOPTICS"> F  </i>
   <v name="STM">      0.00000000      0.00000000      0.00000000      0.00000000      0.00000000      0.00000000      0.00000000</v>
  </separator>
  <separator name="performance" >
   <i type="int" name="NPAR">     4</i>
   <i type="int" name="NSIM">     4</i>
   <i type="int" name="NBLK">    -1</i>
   <i type="logical" name="LPLANE"> T  </i>
   <i type="logical" name="LSCALAPACK"> T  </i>
   <i type="logical" name="LSCAAWARE"> F  </i>
   <i type="logical" name="LSCALU"> F  </i>
   <i type="logical" name="LASYNC"> F  </i>
   <i type="logical" name="LORBITALREAL"> F  </i>
  </separator>
  <separator name="miscellaneous" >
   <i type="int" name="IDIOT">     3</i>
   <i type="int" name="ISPECIAL">     0</i>
   <i type="logical" name="LMUSIC"> F  </i>
   <v name="POMASS">     28.08500000</v>
   <v name="DARWINR">      0.00000000</v>
   <v name="DARWINV">      1.00000000</v>
   <i type="logical" name="LCORR"> T  </i>
  </separator>
  <i type="logical" name="GGA_COMPAT"> T  </i>
  <i type="logical" name="LBERRY"> F  </i>
  <i type="int" name="ICORELEVEL">     0</i>
  <i type="logical" name="LDAU"> F  </i>
  <i type="int" name="I_CONSTRAINED_M">     0</i>
  <separator name="electronic exchange-correlation" >
   <i type="string" name="GGA">PE</i>
   <i type="int" name="VOSKOWN">     0</i>
   <i type="logical" name="LHFCALC"> F  </i>
   <i type="string" name="PRECFOCK"></i>
   <i type="logical" name="LSYMGRAD"> F  </i>
   <i type="logical" name="LHFONE"> F  </i>
   <i type="logical" name="LRHFCALC"> F  </i>
   <i type="logical" name="LTHOMAS"> F  </i>
   <i type="logical" name="LMODELHF"> F  </i>
   <i name="ENCUT4O">     -1.00000000</i>
   <i type="int" name="EXXOEP">     0</i>
   <i type="int" name="FOURORBIT">     0</i>
   <i name="AEXX">      0.00000000</i>
   <i name="HFALPHA">      0.00000000</i>
   <i name="MCALPHA">      0.00000000</i>
   <i name="ALDAX">      1.00000000</i>
   <i name="AGGAX">      1.00000000</i>
   <i name="ALDAC">      1.00000000</i>
   <i name="AGGAC">      1.00000000</i>
   <i type="int" name="NKREDX">     1</i>
   <i type="int" name="NKREDY">     1</i>
   <i type="int" name="NKREDZ">     1</i>
   <i type="logical" name="SHIFTRED"> F  </i>
   <i type="logical" name="ODDONLY"> F  </i>
   <i type="logical" name="EVENONLY"> F  </i>
   <i type="int" name="LMAXFOCK">     0</i>
   <i type="int" name="NMAXFOCKAE">     0</i>
   <i type="logical" name="LFOCKAEDFT"> F  </i>
   <i name="HFSCREEN">      0.00000000</i>
   <i name="HFSCREENC">      0.00000000</i>
   <i type="int" name="NBANDSGWLOW">     0</i>
  </separator>
  <separator name="vdW DFT" >
   <i type="logical" name="LUSE_VDW"> F  </i>
   <i name="Zab_VDW">     -0.84910000</i>
   <i name="PARAM1">      0.12340000</i>
   <i name="PARAM2">      1.00000000</i>
   <i name="PARAM3">      0.00000000</i>
  </separator>
  <separator name="model GW" >
   <i type="int" name="MODEL_GW">     0</i>
   <i name="MODEL_EPS0">     12.26448804</i>
   <i name="MODEL_ALPHA">      1.00000000</i>
  </separator>
  <separator name="linear response parameters" >
   <i type="logical" name="LEPSILON"> F  </i>
   <i type="logical" name="LRPA"> F  </i>
   <i type="logical" name="LNABLA"> F  </i>
   <i type="logical" name="LVEL"> F  </i>
   <i type="int" name="KINTER">     0</i>
   <i name="CSHIFT">      0.10000000</i>
   <i name="OMEGAMAX">     -1.00000000</i>
   <i name="DEG_THRESHOLD">      0.00200000</i>
   <i name="RTIME">     -0.10000000</i>
   <i name="WPLASMAI">      0.00000000</i>
   <v name="DFIELD">      0.00000000      0.00000000      0.00000000</v>
   <v name="WPLASMA">      0.00000000      0.00000000      0.00000000      0.00000000      0.00000000      0.00000000      0.00000000      0.00000000      0.00000000</v>
  </separator>
  <separator name="orbital magnetization" >
   <i type="logical" name="NUCIND"> F  </i>
   <v name="MAGPOS">      0.00000000      0.00000000      0.00000000</v>
   <i type="logical" name="LNICSALL"> T  </i>
   <i type="logical" name="ORBITALMAG"> F  </i>
   <i type="logical" name="LMAGBLOCH"> F  </i>
   <i type="logical" name="LCHIMAG"> F  </i>
   <i type="logical" name="LGAUGE"> T  </i>
   <i type="int" name="MAGATOM">     0</i>
   <v name="MAGDIPOL">      0.00000000      0.00000000      0.00000000</v>
   <v name="AVECCONST">      0.00000000      0.00000000      0.00000000</v>
  </separator>
  <separator name="response functions" >
   <i type="logical" name="LADDER"> F  </i>
   <i type="logical" name="LRPAFORCE"> F  </i>
   <i type="logical" name="LFXC"> F  </i>
   <i type="logical" name="LHARTREE"> T  </i>
   <i type="int" name="IBSE">     0</i>
   <v type="int" name="KPOINT">    -1     0     0     0</v>
   <i type="logical" name="LTCTE"> F  </i>
   <i type="logical" name="LTETE"> F  </i>
   <i type="logical" name="LTRIPLET"> F  </i>
   <i type="logical" name="LFXCEPS"> F  </i>
   <i type="logical" name="LFXHEG"> F  </i>
   <i type="int" name="NATURALO">     2</i>
   <i type="logical" name="L2ORDER"> F  </i>
   <i type="logical" name="LMP2LT"> F  </i>
   <i type="logical" name="LUSEW"> F  </i>
   <i name="ENCUTGW">     -2.00000000</i>
   <i name="ENCUTGWSOFT">     -2.00000000</i>
   <i name="ENCUTLF">     -1.00000000</i>
   <i type="int" name="LMAXMP2">    -1</i>
   <i name="SCISSOR">      0.00000000</i>
   <i type="int" name="NOMEGA">     0</i>
   <i type="int" name="NOMEGAR">     0</i>
   <i type="int" name="NBANDSGW">    -1</i>
   <i type="int" name="NBANDSO">    -1</i>
   <i type="int" name="NBANDSV">    -1</i>
   <i type="int" name="NELM">   500</i>
   <i type="int" name="NELMHF">     1</i>
   <i type="int" name="DIM">     3</i>
   <i type="int" name="ANTIRES">     0</i>
   <i name="OMEGAMAX">    -30.00000000</i>
   <i name="OMEGAMIN">    -30.00000000</i>
   <i name="OMEGATL">   -200.00000000</i>
   <i type="int" name="OMEGAGRID">   140</i>
   <i name="CSHIFT">     -0.10000000</i>
   <i type="logical" name="SELFENERGY"> F  </i>
   <i type="logical" name="LSPECTRAL"> F  </i>
   <i type="logical" name="LSPECTRALGW"> F  </i>
   <i type="logical" name="LSINGLES"> F  </i>
   <i type="logical" name="LFERMIGW"> F  </i>
   <i type="logical" name="ODDONLYGW"> F  </i>
   <i type="logical" name="EVENONLYGW"> F  </i>
   <i type="int" name="NKREDLFX">     1</i>
   <i type="int" name="NKREDLFY">     1</i>
   <i type="int" name="NKREDLFZ">     1</i>
   <i type="int" name="MAXMEM">  2800</i>
   <i type="int" name="TELESCOPE">     0</i>
   <i type="int" name="TAUPAR">     1</i>
   <i type="int" name="OMEGAPAR">    -1</i>
   <i name="LAMBDA">      1.00000000</i>
  </separator>
  <separator name="External order field" >
   <i name="OFIELD_KAPPA">      0.00000000</i>
   <v name="OFIELD_K">      0.00000000      0.00000000      0.00000000</v>
   <i name="OFIELD_Q6_NEAR">      0.00000000</i>
   <i name="OFIELD_Q6_FAR">      0.00000000</i>
   <i name="OFIELD_A">      0.00000000</i>
  </separator>
  <separator name="solvation model" >
   <i type="logical" name="LSOL"> F  </i>
  </separator>
 </parameters>
 <atominfo>
  <atoms>       2 </atoms>
  <types>       1 </types>
  <array name="atoms" >
   <dimension dim="1">ion</dimension>
   <field type="string">element</field>
   <field type="int">atomtype</field>
   <set>
    <rc><c>Si</c><c>   1</c></rc>
    <rc><c>Si</c><c>   1</c></rc>
   </set>
  </array>
  <array name="atomtypes" >
   <dimension dim="1">type</dimension>
   <field type="int">atomspertype</field>
   <field type="string">element</field>
   <field>mass</field>
   <field>valence</field>
   <field type="string">pseudopotential</field>
   <set>
    <rc><c>   2</c><c>Si</c><c>     28.08500000</c><c>      4.00000000</c><c>  PAW_PBE Si 05Jan2001                  </c></rc>
   </set>
  </array>
 </atominfo>
 <structure name="initialpos" >
  <crystal>
   <varray name="basis" >
    <v>       0.00000000       2.73421540       2.73421540 </v>
    <v>       2.73421540       0.00000000       2.73421540 </v>
    <v>       2.73421540       2.73421540       0.00000000 </v>
   </varray>
   <i name="volume">     40.88162679 </i>
   <varray name="rec_basis" >
    <v>      -0.18286782       0.18286782       0.18286782 </v>
    <v>       0.18286782      -0.18286782       0.18286782 </v>
    <v>       0.18286782       0.18286782      -0.18286782 </v>
   </varray>
  </crystal>
  <varray name="positions" >
   <v>       0.00000000       0.00000000       0.00000000 </v>
   <v>       0.25000000       0.25000000       0.25000000 </v>
  </varray>
 </structure>
 <calculation>
  <scstep>
   <time name="diag">    0.01    0.01</time>
   <time name="diis">    0.01    0.01</time>
   <time name="orth">    0.00    0.00</time>
   <time name="total">    0.03    0.03</time>
   <energy>
    <i name="alphaZ">      3.29371734 </i>
    <i name="ewald">   -226.95723643 </i>
    <i name="hartreedc">    -11.32090663 </i>
    <i name="XCdc">    -18.68454667 </i>
    <i name="pawpsdc">    176.24759923 </i>
    <i name="pawaedc">   -141.06103558 </i>
    <i name="eentropy">     -0.00000000 </i>
    <i name="bandstr">     41.35607617 </i>
    <i name="atom">    206.13149246 </i>
    <i name="e_fr_energy">     29.00515989 </i>
    <i name="e_wo_entrp">     29.00515989 </i>
    <i name="e_0_energy">     29.00515989 </i>
   </energy>
  </scstep>
  <scstep>
   <time name="diag">    0.01    0.01</time>
   <time name="diis">    0.01    0.01</time>
   <time name="orth">    0.00    0.00</time>
   <time name="total">    0.02    0.02</time>
   <energy>
    <i name="e_fr_energy">      0.00412608 </i>
    <i name="e_wo_entrp">      0.00553315 </i>
    <i name="e_0_energy">      0.00482961 </i>
   </energy>
  </scstep>
  <scstep>
   <time name="diag">    0.01    0.01</time>
   <time name="diis">    0.01    0.01</time>
   <time name="orth">    0.00    0.00</time>
   <time name="total">    0.01    0.02</time>
   <energy>
    <i name="e_fr_energy">     -7.77880952 </i>
    <i name="e_wo_entrp">     -7.77778174 </i>
    <i name="e_0_energy">     -7.77829563 </i>
   </energy>
  </scstep>
  <scstep>
   <time name="diag">    0.01    0.01</time>
   <time name="diis">    0.01    0.01</time>
   <time name="orth">    0.00    0.00</time>
   <time name="total">    0.01    0.02</time>
   <energy>
    <i name="e_fr_energy">    -10.26088281 </i>
    <i name="e_wo_entrp">    -10.25991868 </i>
    <i name="e_0_energy">    -10.26040074 </i>
   </energy>
  </scstep>
  <scstep>
   <time name="diag">    0.01    0.01</time>
   <time name="diis">    0.01    0.01</time>
   <time name="orth">    0.00    0.00</time>
   <time name="total">    0.02    0.02</time>
   <energy>
    <i name="e_fr_energy">    -10.80691323 </i>
    <i name="e_wo_entrp">    -10.80691323 </i>
    <i name="e_0_energy">    -10.80691323 </i>
   </energy>
  </scstep>
  <scstep>
   <time name="diag">    0.01    0.01</time>
   <time name="diis">    0.01    0.01</time>
   <time name="orth">    0.00    0.00</time>
   <time name="total">    0.01    0.02</time>
   <energy>
    <i name="e_fr_energy">    -10.94444430 </i>
    <i name="e_wo_entrp">    -10.94444430 </i>
    <i name="e_0_energy">    -10.94444430 </i>
   </energy>
  </scstep>
  <scstep>
   <time name="diag">    0.01    0.01</time>
   <time name="diis">    0.01    0.01</time>
   <time name="orth">    0.00    0.00</time>
   <time name="total">    0.02    0.02</time>
   <energy>
    <i name="e_fr_energy">    -11.01076564 </i>
    <i name="e_wo_entrp">    -11.01076564 </i>
    <i name="e_0_energy">    -11.01076564 </i>
   </energy>
  </scstep>
  <scstep>
   <time name="diag">    0.01    0.01</time>
   <time name="diis">    0.01    0.01</time>
   <time name="orth">    0.00    0.00</time>
   <time name="total">    0.02    0.02</time>
   <energy>
    <i name="e_fr_energy">    -11.01637558 </i>
    <i name="e_wo_entrp">    -11.01637558 </i>
    <i name="e_0_energy">    -11.01637558 </i>
   </energy>
  </scstep>
  <scstep>
   <time name="diag">    0.01    0.01</time>
   <time name="diis">    0.01    0.01</time>
   <time name="orth">    0.00    0.00</time>
   <time name="total">    0.02    0.03</time>
   <energy>
    <i name="e_fr_energy">    -11.01664034 </i>
    <i name="e_wo_entrp">    -11.01664034 </i>
    <i name="e_0_energy">    -11.01664034 </i>
   </energy>
  </scstep>
  <scstep>
   <time name="diag">    0.01    0.01</time>
   <time name="diis">    0.01    0.01</time>
   <time name="orth">    0.00    0.00</time>
   <time name="total">    0.03    0.03</time>
   <energy>
    <i name="e_fr_energy">    -10.90050766 </i>
    <i name="e_wo_entrp">    -10.90050766 </i>
    <i name="e_0_energy">    -10.90050766 </i>
   </energy>
  </scstep>
  <scstep>
   <time name="diag">    0.01    0.01</time>
   <time name="diis">    0.01    0.01</time>
   <time name="orth">    0.00    0.00</time>
   <time name="total">    0.03    0.03</time>
   <energy>
    <i name="e_fr_energy">    -10.84683876 </i>
    <i name="e_wo_entrp">    -10.84683876 </i>
    <i name="e_0_energy">    -10.84683876 </i>
   </energy>
  </scstep>
  <scstep>
   <time name="diag">    0.01    0.01</time>
   <time name="diis">    0.01    0.01</time>
   <time name="orth">    0.00    0.00</time>
   <time name="total">    0.03    0.03</time>
   <energy>
    <i name="e_fr_energy">    -10.84785320 </i>
    <i name="e_wo_entrp">    -10.84785320 </i>
    <i name="e_0_energy">    -10.84785320 </i>
   </energy>
  </scstep>
  <scstep>
   <time name="diag">    0.01    0.01</time>
   <time name="diis">    0.01    0.01</time>
   <time name="orth">    0.00    0.00</time>
   <time name="total">    0.03    0.03</time>
   <energy>
    <i name="e_fr_energy">    -10.84804836 </i>
    <i name="e_wo_entrp">    -10.84804836 </i>
    <i name="e_0_energy">    -10.84804836 </i>
   </energy>
  </scstep>
  <scstep>
   <time name="diag">    0.01    0.01</time>
   <time name="diis">    0.01    0.01</time>
   <time name="orth">    0.00    0.00</time>
   <time name="total">    0.03    0.03</time>
   <energy>
    <i name="e_fr_energy">    -10.84807431 </i>
    <i name="e_wo_entrp">    -10.84807431 </i>
    <i name="e_0_energy">    -10.84807431 </i>
   </energy>
  </scstep>
  <scstep>
   <time name="diag">    0.01    0.01</time>
   <time name="diis">    0.01    0.01</time>
   <time name="orth">    0.00    0.00</time>
   <time name="total">    0.03    0.03</time>
   <energy>
    <i name="alphaZ">      3.29371734 </i>
    <i name="ewald">   -226.95723643 </i>
    <i name="hartreedc">    -15.17569489 </i>
    <i name="XCdc">    -18.05733336 </i>
    <i name="pawpsdc">    828.14441016 </i>
    <i name="pawaedc">   -793.16356326 </i>
    <i name="eentropy">     -0.00000000 </i>
    <i name="bandstr">      4.93613365 </i>
    <i name="atom">    206.13149246 </i>
    <i name="e_fr_energy">    -10.84807432 </i>
    <i name="e_wo_entrp">    -10.84807432 </i>
    <i name="e_0_energy">    -10.84807432 </i>
   </energy>
  </scstep>
  <structure>
   <crystal>
    <varray name="basis" >
     <v>       0.00000000       2.73421540       2.73421540 </v>
     <v>       2.73421540       0.00000000       2.73421540 </v>
     <v>       2.73421540       2.73421540       0.00000000 </v>
    </varray>
    <i name="volume">     40.88162679 </i>
    <varray name="rec_basis" >
     <v>      -0.18286782       0.18286782       0.18286782 </v>
     <v>       0.18286782      -0.18286782       0.18286782 </v>
     <v>       0.18286782       0.18286782      -0.18286782 </v>
    </varray>
   </crystal>
   <varray name="positions" >
    <v>       0.00000000       0.00000000       0.00000000 </v>
    <v>       0.25000000       0.25000000       0.25000000 </v>
   </varray>
  </structure>
  <varray name="forces" >
   <v>       0.00000000       0.00000000       0.00000000 </v>
   <v>      -0.00000000      -0.00000000      -0.00000000 </v>
  </varray>
  <varray name="stress" >
   <v>      -0.03461605       0.00000000      -0.00000000 </v>
   <v>      -0.00000000      -0.03461605      -0.00000000 </v>
   <v>      -0.00000000      -0.00000000      -0.03461605 </v>
  </varray>
  <energy>
   <i name="e_fr_energy">    -10.84807432 </i>
   <i name="e_wo_entrp">    -10.84807432 </i>
   <i name="e_0_energy">     -0.00000000 </i>
  </energy>
  <time name="totalsc">    0.40    0.42</time>
  <eigenvalues>
   <array>
    <dimension dim="1">band</dimension>
    <dimension dim="2">kpoint</dimension>
    <dimension dim="3">spin</dimension>
    <field>eigene</field>
    <field>occ</field>
    <set>
     <set comment="spin 1">
      <set comment="kpoint 1">
       <r>   -5.9974    1.0000 </r>
       <r>    4.0275    1.0000 </r>
       <r>    5.3359    1.0000 </r>
       <r>    5.3359    1.0000 </r>
       <r>    8.0621    0.0000 </r>
       <r>    8.5911    0.0000 </r>
       <r>    8.5911    0.0000 </r>
       <r>   12.8565    0.0000 </r>
      </set>
      <set comment="kpoint 2">
       <r>   -4.9710    1.0000 </r>
       <r>    1.0365    1.0000 </r>
       <r>    3.3515    1.0000 </r>
       <r>    4.8569    1.0000 </r>
       <r>    8.2750    0.0000 </r>
       <r>    9.2804    0.0000 </r>
       <r>    9.4546    0.0000 </r>
       <r>   15.5260    0.0000 </r>
      </set>
      <set comment="kpoint 3">
       <r>   -3.8318    1.0000 </r>
       <r>   -1.0406    1.0000 </r>
       <r>    3.3725    1.0000 </r>
       <r>    4.0863    1.0000 </r>
       <r>    7.7820    0.0000 </r>
       <r>    9.1076    0.0000 </r>
       <r>    9.7124    0.0000 </r>
       <r>   15.8701    0.0000 </r>
      </set>
      <set comment="kpoint 4">
       <r>   -5.4696    1.0000 </r>
       <r>    2.4124    1.0000 </r>
       <r>    4.3292    1.0000 </r>
       <r>    4.3930    1.0000 </r>
       <r>    7.7637    0.0000 </r>
       <r>    9.2444    0.0000 </r>
       <r>   10.1441    0.0000 </r>
       <r>   13.0097    0.0000 </r>
      </set>
      <set comment="kpoint 5">
       <r>   -4.4385    1.0000 </r>
       <r>    0.7028    1.0000 </r>
       <r>    3.0033    1.0000 </r>
       <r>    3.4563    1.0000 </r>
       <r>    6.9894    0.0000 </r>
       <r>    8.5219    0.0000 </r>
       <r>   11.5305    0.0000 </r>
       <r>   15.5825    0.0000 </r>
      </set>
      <set comment="kpoint 6">
       <r>   -2.7993    1.0000 </r>
       <r>   -1.2582    1.0000 </r>
       <r>    1.6494    1.0000 </r>
       <r>    2.7258    1.0000 </r>
       <r>    8.0140    0.0000 </r>
       <r>    9.8881    0.0000 </r>
       <r>   10.8324    0.0000 </r>
       <r>   12.9723    0.0000 </r>
      </set>
      <set comment="kpoint 7">
       <r>   -4.0231    1.0000 </r>
       <r>   -0.1700    1.0000 </r>
       <r>    2.3617    1.0000 </r>
       <r>    3.7304    1.0000 </r>
       <r>    8.4834    0.0000 </r>
       <r>    9.1490    0.0000 </r>
       <r>   10.5973    0.0000 </r>
       <r>   11.4982    0.0000 </r>
      </set>
      <set comment="kpoint 8">
       <r>   -2.9670    1.0000 </r>
       <r>   -1.1609    1.0000 </r>
       <r>    2.2594    1.0000 </r>
       <r>    2.9899    1.0000 </r>
       <r>    6.5492    0.0000 </r>
       <r>    7.6036    0.0000 </r>
       <r>   13.7945    0.0000 </r>
       <r>   13.8503    0.0000 </r>
      </set>
      <set comment="kpoint 9">
       <r>   -4.5382    1.0000 </r>
       <r>   -0.2531    1.0000 </r>
       <r>    4.5504    1.0000 </r>
       <r>    4.5504    1.0000 </r>
       <r>    7.2139    0.0000 </r>
       <r>    9.0719    0.0000 </r>
       <r>    9.0719    0.0000 </r>
       <r>   13.4914    0.0000 </r>
      </set>
      <set comment="kpoint 10">
       <r>   -3.3362    1.0000 </r>
       <r>   -0.9558    1.0000 </r>
       <r>    1.7077    1.0000 </r>
       <r>    3.7695    1.0000 </r>
       <r>    7.4745    0.0000 </r>
       <r>   11.0210    0.0000 </r>
       <r>   11.0621    0.0000 </r>
       <r>   13.4975    0.0000 </r>
      </set>
     </set>
    </set>
   </array>
  </eigenvalues>
  <separator name="orbital magnetization" >
   <v name="MAGDIPOLOUT">      0.00000000      0.00000000      0.00000000</v>
  </separator>
  <dos>
   <i name="efermi">      5.43747799 </i>
   <total>
    <array>
     <dimension dim="1">gridpoints</dimension>
     <dimension dim="2">spin</dimension>
     <field>energy</field>
     <field>total</field>
     <field>integrated</field>
     <set>
      <set comment="spin 1">
       <r>    -7.0907     0.0000     0.0000 </r>
       <r>    -7.0106     0.0000     0.0000 </r>
       <r>    -6.9304     0.0000     0.0000 </r>
       <r>    -6.8502     0.0000     0.0000 </r>
       <r>    -6.7700     0.0000     0.0000 </r>
       <r>    -6.6898     0.0000     0.0000 </r>
       <r>    -6.6097     0.0000     0.0000 </r>
       <r>    -6.5295     0.0000     0.0000 </r>
       <r>    -6.4493     0.0000     0.0000 </r>
       <r>    -6.3691     0.0000     0.0000 </r>
       <r>    -6.2889     0.0000     0.0000 </r>
       <r>    -6.2088     0.0000     0.0000 </r>
       <r>    -6.1286     0.0000     0.0000 </r>
       <r>    -6.0484     0.0001     0.0000 </r>
       <r>    -5.9682     0.7641     0.0613 </r>
       <r>    -5.8880     0.0153     0.0625 </r>
       <r>    -5.8079     0.0000     0.0625 </r>
       <r>    -5.7277     0.0000     0.0625 </r>
       <r>    -5.6475     0.0000     0.0625 </r>
       <r>    -5.5673     0.0000     0.0625 </r>
       <r>    -5.4871     0.2520     0.0827 </r>
       <r>    -5.4070     2.0865     0.2500 </r>
       <r>    -5.3268     0.0000     0.2500 </r>
       <r>    -5.2466     0.0000     0.2500 </r>
       <r>    -5.1664     0.0000     0.2500 </r>
       <r>    -5.0862     0.0000     0.2500 </r>
       <r>    -5.0060     0.0154     0.2512 </r>
       <r>    -4.9259     2.3214     0.4374 </r>
       <r>    -4.8457     0.0017     0.4375 </r>
       <r>    -4.7655     0.0000     0.4375 </r>
       <r>    -4.6853     0.0000     0.4375 </r>
       <r>    -4.6051     0.0000     0.4375 </r>
       <r>    -4.5250     0.6432     0.4891 </r>
       <r>    -4.4448     0.9060     0.5617 </r>
       <r>    -4.3646     1.5688     0.6875 </r>
       <r>    -4.2844     0.0000     0.6875 </r>
       <r>    -4.2042     0.0000     0.6875 </r>
       <r>    -4.1241     0.0000     0.6875 </r>
       <r>    -4.0439     0.3328     0.7142 </r>
       <r>    -3.9637     4.3440     1.0625 </r>
       <r>    -3.8835     0.0004     1.0625 </r>
       <r>    -3.8033     2.2862     1.2458 </r>
       <r>    -3.7232     0.0520     1.2500 </r>
       <r>    -3.6430     0.0000     1.2500 </r>
       <r>    -3.5628     0.0000     1.2500 </r>
       <r>    -3.4826     0.0000     1.2500 </r>
       <r>    -3.4024     0.0000     1.2500 </r>
       <r>    -3.3223     1.9586     1.4070 </r>
       <r>    -3.2421     0.3799     1.4375 </r>
       <r>    -3.1619     0.0000     1.4375 </r>
       <r>    -3.0817     0.0000     1.4375 </r>
       <r>    -3.0015     0.0169     1.4389 </r>
       <r>    -2.9214     2.3201     1.6249 </r>
       <r>    -2.8412     0.0086     1.6256 </r>
       <r>    -2.7610     4.6539     1.9987 </r>
       <r>    -2.6808     0.0159     2.0000 </r>
       <r>    -2.6006     0.0000     2.0000 </r>
       <r>    -2.5205     0.0000     2.0000 </r>
       <r>    -2.4403     0.0000     2.0000 </r>
       <r>    -2.3601     0.0000     2.0000 </r>
       <r>    -2.2799     0.0000     2.0000 </r>
       <r>    -2.1997     0.0000     2.0000 </r>
       <r>    -2.1195     0.0000     2.0000 </r>
       <r>    -2.0394     0.0000     2.0000 </r>
       <r>    -1.9592     0.0000     2.0000 </r>
       <r>    -1.8790     0.0000     2.0000 </r>
       <r>    -1.7988     0.0000     2.0000 </r>
       <r>    -1.7186     0.0000     2.0000 </r>
       <r>    -1.6385     0.0000     2.0000 </r>
       <r>    -1.5583     0.0000     2.0000 </r>
       <r>    -1.4781     0.0000     2.0000 </r>
       <r>    -1.3979     0.0000     2.0000 </r>
       <r>    -1.3177     0.0001     2.0000 </r>
       <r>    -1.2376     4.3398     2.3480 </r>
       <r>    -1.1574     1.7385     2.4874 </r>
       <r>    -1.0772     0.9484     2.5634 </r>
       <r>    -0.9970     2.3290     2.7501 </r>
       <r>    -0.9168     2.3299     2.9370 </r>
       <r>    -0.8367     0.0068     2.9375 </r>
       <r>    -0.7565     0.0000     2.9375 </r>
       <r>    -0.6763     0.0000     2.9375 </r>
       <r>    -0.5961     0.0000     2.9375 </r>
       <r>    -0.5159     0.0000     2.9375 </r>
       <r>    -0.4358     0.0000     2.9375 </r>
       <r>    -0.3556     0.0000     2.9375 </r>
       <r>    -0.2754     0.0445     2.9411 </r>
       <r>    -0.1952     0.9102     3.0141 </r>
       <r>    -0.1150     4.5015     3.3750 </r>
       <r>    -0.0349     0.0002     3.3750 </r>
       <r>     0.0453     0.0000     3.3750 </r>
       <r>     0.1255     0.0000     3.3750 </r>
       <r>     0.2057     0.0000     3.3750 </r>
       <r>     0.2859     0.0000     3.3750 </r>
       <r>     0.3661     0.0000     3.3750 </r>
       <r>     0.4462     0.0000     3.3750 </r>
       <r>     0.5264     0.0000     3.3750 </r>
       <r>     0.6066     0.0000     3.3750 </r>
       <r>     0.6868     0.3010     3.3991 </r>
       <r>     0.7670     2.0375     3.5625 </r>
       <r>     0.8471     0.0000     3.5625 </r>
       <r>     0.9273     0.0000     3.5625 </r>
       <r>     1.0075     0.0471     3.5663 </r>
       <r>     1.0877     2.2910     3.7500 </r>
       <r>     1.1679     0.0003     3.7500 </r>
       <r>     1.2480     0.0000     3.7500 </r>
       <r>     1.3282     0.0000     3.7500 </r>
       <r>     1.4084     0.0000     3.7500 </r>
       <r>     1.4886     0.0000     3.7500 </r>
       <r>     1.5688     0.0000     3.7500 </r>
       <r>     1.6489     2.2760     3.9325 </r>
       <r>     1.7291     4.5880     4.3004 </r>
       <r>     1.8093     0.1513     4.3125 </r>
       <r>     1.8895     0.0000     4.3125 </r>
       <r>     1.9697     0.0000     4.3125 </r>
       <r>     2.0498     0.0000     4.3125 </r>
       <r>     2.1300     0.0000     4.3125 </r>
       <r>     2.2102     0.0006     4.3125 </r>
       <r>     2.2904     2.3047     4.4973 </r>
       <r>     2.3706     3.4774     4.7762 </r>
       <r>     2.4507     3.5634     5.0619 </r>
       <r>     2.5309     0.0078     5.0625 </r>
       <r>     2.6111     0.0000     5.0625 </r>
       <r>     2.6913     0.0344     5.0653 </r>
       <r>     2.7715     4.6397     5.4373 </r>
       <r>     2.8517     0.0029     5.4375 </r>
       <r>     2.9318     0.0000     5.4375 </r>
       <r>     3.0120     3.9098     5.7510 </r>
       <r>     3.0922     0.7671     5.8125 </r>
       <r>     3.1724     0.0000     5.8125 </r>
       <r>     3.2526     0.0000     5.8125 </r>
       <r>     3.3327     0.2223     5.8303 </r>
       <r>     3.4129     4.4521     6.1873 </r>
       <r>     3.4931     2.3302     6.3741 </r>
       <r>     3.5733     0.0108     6.3750 </r>
       <r>     3.6535     0.0000     6.3750 </r>
       <r>     3.7336     2.7765     6.5976 </r>
       <r>     3.8138     4.2369     6.9373 </r>
       <r>     3.8940     0.0020     6.9375 </r>
       <r>     3.9742     0.0001     6.9375 </r>
       <r>     4.0544     0.7853     7.0005 </r>
       <r>     4.1345     2.3318     7.1874 </r>
       <r>     4.2147     0.0007     7.1875 </r>
       <r>     4.2949     0.0179     7.1889 </r>
       <r>     4.3751     2.5586     7.3941 </r>
       <r>     4.4553     2.1005     7.5625 </r>
       <r>     4.5354     0.2274     7.5807 </r>
       <r>     4.6156     1.3316     7.6875 </r>
       <r>     4.6958     0.0000     7.6875 </r>
       <r>     4.7760     0.0000     7.6875 </r>
       <r>     4.8562     1.1232     7.7776 </r>
       <r>     4.9363     1.2153     7.8750 </r>
       <r>     5.0165     0.0000     7.8750 </r>
       <r>     5.0967     0.0000     7.8750 </r>
       <r>     5.1769     0.0000     7.8750 </r>
       <r>     5.2571     0.0000     7.8750 </r>
       <r>     5.3373     0.8381     7.9422 </r>
       <r>     5.4174     0.7208     8.0000 </r>
       <r>     5.4976     0.0000     8.0000 </r>
       <r>     5.5778     0.0000     8.0000 </r>
       <r>     5.6580     0.0000     8.0000 </r>
       <r>     5.7382     0.0000     8.0000 </r>
       <r>     5.8183     0.0000     8.0000 </r>
       <r>     5.8985     0.0000     8.0000 </r>
       <r>     5.9787     0.0000     8.0000 </r>
       <r>     6.0589     0.0000     8.0000 </r>
       <r>     6.1391     0.0000     8.0000 </r>
       <r>     6.2192     0.0000     8.0000 </r>
       <r>     6.2994     0.0000     8.0000 </r>
       <r>     6.3796     0.0000     8.0000 </r>
       <r>     6.4598     0.0000     8.0000 </r>
       <r>     6.5400     0.6019     8.0483 </r>
       <r>     6.6201     1.7366     8.1875 </r>
       <r>     6.7003     0.0000     8.1875 </r>
       <r>     6.7805     0.0000     8.1875 </r>
       <r>     6.8607     0.0000     8.1875 </r>
       <r>     6.9409     0.0007     8.1876 </r>
       <r>     7.0210     2.3081     8.3726 </r>
       <r>     7.1012     0.0297     8.3750 </r>
       <r>     7.1814     0.0085     8.3757 </r>
       <r>     7.2616     0.7707     8.4375 </r>
       <r>     7.3418     0.0003     8.4375 </r>
       <r>     7.4219     0.0002     8.4375 </r>
       <r>     7.5021     2.2787     8.6202 </r>
       <r>     7.5823     0.2136     8.6374 </r>
       <r>     7.6625     2.1843     8.8125 </r>
       <r>     7.7427     0.1658     8.8258 </r>
       <r>     7.8229     4.5066     9.1871 </r>
       <r>     7.9030     0.0046     9.1875 </r>
       <r>     7.9832     0.0689     9.1930 </r>
       <r>     8.0634     5.0241     9.5959 </r>
       <r>     8.1436     0.3634     9.6250 </r>
       <r>     8.2238     0.0003     9.6250 </r>
       <r>     8.3039     2.2908     9.8087 </r>
       <r>     8.3841     0.0473     9.8125 </r>
       <r>     8.4643     0.4158     9.8458 </r>
       <r>     8.5445     6.4714    10.3647 </r>
       <r>     8.6247     1.6735    10.4989 </r>
       <r>     8.7048     0.0136    10.5000 </r>
       <r>     8.7850     0.0000    10.5000 </r>
       <r>     8.8652     0.0000    10.5000 </r>
       <r>     8.9454     0.0000    10.5000 </r>
       <r>     9.0256     0.0008    10.5001 </r>
       <r>     9.1057     2.5969    10.7083 </r>
       <r>     9.1859     5.9558    11.1858 </r>
       <r>     9.2661     2.5774    11.3925 </r>
       <r>     9.3463     2.1204    11.5625 </r>
       <r>     9.4265     0.0549    11.5669 </r>
       <r>     9.5066     2.2833    11.7500 </r>
       <r>     9.5868     0.0003    11.7500 </r>
       <r>     9.6670     0.0015    11.7501 </r>
       <r>     9.7472     2.3206    11.9362 </r>
       <r>     9.8274     0.0164    11.9375 </r>
       <r>     9.9075     4.2813    12.2808 </r>
       <r>     9.9877     0.3956    12.3125 </r>
       <r>    10.0679     0.0000    12.3125 </r>
       <r>    10.1481     1.4284    12.4270 </r>
       <r>    10.2283     0.9101    12.5000 </r>
       <r>    10.3085     0.0000    12.5000 </r>
       <r>    10.3886     0.0000    12.5000 </r>
       <r>    10.4688     0.0000    12.5000 </r>
       <r>    10.5490     0.0015    12.5001 </r>
       <r>    10.6292     4.6191    12.8705 </r>
       <r>    10.7094     0.0563    12.8750 </r>
       <r>    10.7895     0.0057    12.8755 </r>
       <r>    10.8697     4.6517    13.2484 </r>
       <r>    10.9499     0.0196    13.2500 </r>
       <r>    11.0301     1.7557    13.3908 </r>
       <r>    11.1103     2.9205    13.6249 </r>
       <r>    11.1904     0.0008    13.6250 </r>
       <r>    11.2706     0.0000    13.6250 </r>
       <r>    11.3508     0.0000    13.6250 </r>
       <r>    11.4310     0.0000    13.6250 </r>
       <r>    11.5112     4.0355    13.9486 </r>
       <r>    11.5913     2.9799    14.1875 </r>
       <r>    11.6715     0.0000    14.1875 </r>
       <r>    11.7517     0.0000    14.1875 </r>
       <r>    11.8319     0.0000    14.1875 </r>
       <r>    11.9121     0.0000    14.1875 </r>
       <r>    11.9922     0.0000    14.1875 </r>
       <r>    12.0724     0.0000    14.1875 </r>
       <r>    12.1526     0.0000    14.1875 </r>
       <r>    12.2328     0.0000    14.1875 </r>
       <r>    12.3130     0.0000    14.1875 </r>
       <r>    12.3931     0.0000    14.1875 </r>
       <r>    12.4733     0.0000    14.1875 </r>
       <r>    12.5535     0.0000    14.1875 </r>
       <r>    12.6337     0.0000    14.1875 </r>
       <r>    12.7139     0.0000    14.1875 </r>
       <r>    12.7941     0.0000    14.1875 </r>
       <r>    12.8742     0.6974    14.2434 </r>
       <r>    12.9544     0.5666    14.2888 </r>
       <r>    13.0346     6.4394    14.8052 </r>
       <r>    13.1148     0.0916    14.8125 </r>
       <r>    13.1950     0.0000    14.8125 </r>
       <r>    13.2751     0.0000    14.8125 </r>
       <r>    13.3553     0.0000    14.8125 </r>
       <r>    13.4355     0.0000    14.8125 </r>
       <r>    13.5157     2.8510    15.0411 </r>
       <r>    13.5959     0.2669    15.0625 </r>
       <r>    13.6760     0.0000    15.0625 </r>
       <r>    13.7562     0.0080    15.0631 </r>
       <r>    13.8364     2.7085    15.2803 </r>
       <r>    13.9166     1.9604    15.4375 </r>
       <r>    13.9968     0.0000    15.4375 </r>
       <r>    14.0769     0.0000    15.4375 </r>
       <r>    14.1571     0.0000    15.4375 </r>
       <r>    14.2373     0.0000    15.4375 </r>
       <r>    14.3175     0.0000    15.4375 </r>
       <r>    14.3977     0.0000    15.4375 </r>
       <r>    14.4778     0.0000    15.4375 </r>
       <r>    14.5580     0.0000    15.4375 </r>
       <r>    14.6382     0.0000    15.4375 </r>
       <r>    14.7184     0.0000    15.4375 </r>
       <r>    14.7986     0.0000    15.4375 </r>
       <r>    14.8787     0.0000    15.4375 </r>
       <r>    14.9589     0.0000    15.4375 </r>
       <r>    15.0391     0.0000    15.4375 </r>
       <r>    15.1193     0.0000    15.4375 </r>
       <r>    15.1995     0.0000    15.4375 </r>
       <r>    15.2797     0.0000    15.4375 </r>
       <r>    15.3598     0.0000    15.4375 </r>
       <r>    15.4400     0.0000    15.4375 </r>
       <r>    15.5202     0.7938    15.5012 </r>
       <r>    15.6004     3.6426    15.7932 </r>
       <r>    15.6806     0.2405    15.8125 </r>
       <r>    15.7607     0.0000    15.8125 </r>
       <r>    15.8409     0.0459    15.8162 </r>
       <r>    15.9211     2.2922    16.0000 </r>
       <r>    16.0013     0.0004    16.0000 </r>
       <r>    16.0815     0.0000    16.0000 </r>
       <r>    16.1616     0.0000    16.0000 </r>
       <r>    16.2418     0.0000    16.0000 </r>
       <r>    16.3220     0.0000    16.0000 </r>
       <r>    16.4022     0.0000    16.0000 </r>
       <r>    16.4824     0.0000    16.0000 </r>
       <r>    16.5625     0.0000    16.0000 </r>
       <r>    16.6427     0.0000    16.0000 </r>
       <r>    16.7229     0.0000    16.0000 </r>
       <r>    16.8031     0.0000    16.0000 </r>
       <r>    16.8833     0.0000    16.0000 </r>
       <r>    16.9634     0.0000    16.0000 </r>
      </set>
     </set>
    </array>
   </total>
  </dos>
 </calculation>
 <structure name="finalpos" >
  <crystal>
   <varray name="basis" >
    <v>       0.00000000       2.73421540       2.73421540 </v>
    <v>       2.73421540       0.00000000       2.73421540 </v>
    <v>       2.73421540       2.73421540       0.00000000 </v>
   </varray>
   <i name="volume">     40.88162679 </i>
   <varray name="rec_basis" >
    <v>      -0.18286782       0.18286782       0.18286782 </v>
    <v>       0.18286782      -0.18286782       0.18286782 </v>
    <v>       0.18286782       0.18286782      -0.18286782 </v>
   </varray>
  </crystal>
  <varray name="positions" >
   <v>       0.00000000       0.00000000       0.00000000 </v>
   <v>       0.25000000       0.25000000       0.25000000 </v>
  </varray>
 </structure>
</modeling>
