Formula,MP id,Difficulty,Nsites,GGA,,HSE,,MP,Final expt. data,
VF2,mp-555934,5,6,1.08,1.08,0.63,0.55,2.25,,
VCo3,mp-1017529,5,4,0.00,0.00,,,0.00,,
VCl4,mp-865511,5,20,0.08,0.06,,,0.12,,
CrF5,mvc-14215,5,12,,,,,1.18,,
VCl2,mp-22877,5,3,0.00,0.00,0.00,0.00,1.25,,
VBr2,mp-971787,5,3,0.00,0.00,0.00,0.00,1.13,,
CrF3,mp-560338,5,8,1.56,1.52,,,2.84,,
CrF2,mp-554340,5,6,1.14,0.99,4.11,3.96,2.6,,
V2O5,mp-25620,5,14,1.95,1.67,,,2.2,2.0,10.1063/1.3253115
CrCl3,mp-27630,5,8,1.64,1.61,,,1.5,,
V2O3,mp-18937,5,10,0.00,0.00,,,0.5,0.1,10.1063/1.3253115
CoO2,mvc-14149,5,12,0.16,0.02,,,0.5,,
Ga3Fe,mp-636368,6,16,0.67,0.43,,,0.2,,
FeGe,mp-21255,6,8,0.16,0.13,,,0.1,,
MnI2,mp-28013,7,3,0.87,0.51,,,1.2,4.0,10.1063/1.3253115
CoSb3,mp-1317,7,16,0.06,0.06,,,0.2,,
VI2,mp-1018138,7,3,1.00,0.97,,,1.0,,