
     Program PWSCF v.6.4.1 starts on 30Nov2019 at  0:10:38 

     This program is part of the open-source Quantum ESPRESSO suite
     for quantum simulation of materials; please cite
         "P. Giannozzi et al., J. Phys.:Condens. Matter 21 395502 (2009);
         "P. Giannozzi et al., J. Phys.:Condens. Matter 29 465901 (2017);
          URL http://www.quantum-espresso.org", 
     in publications or presentations arising from this work. More details at
     http://www.quantum-espresso.org/quote

     Parallel version (MPI), running on     1 processors

     MPI processes distributed on     1 nodes
     Reading input from /Users/david/Library/Mobile Documents/com~apple~CloudDocs/MSE 215/DFT/convergeBeta/(5,200)/input.txt

     Current dimensions of program PWSCF are:
     Max number of different atomic species (ntypx) = 10
     Max number of k-points (npk) =  40000
     Max angular momentum in pseudopotentials (lmaxx) =  3

     Subspace diagonalization in iterative solution of the eigenvalue problem:
     a serial algorithm will be used


     G-vector sticks info
     --------------------
     sticks:   dense  smooth     PW     G-vecs:    dense   smooth      PW
     Sum         193     193     93                 1165     1165     363



     bravais-lattice index     =            7
     lattice parameter (alat)  =       8.8511  a.u.
     unit-cell volume          =     156.0188 (a.u.)^3
     number of atoms/cell      =            2
     number of atomic types    =            1
     number of electrons       =         8.00
     number of Kohn-Sham states=           12
     kinetic-energy cutoff     =      14.6997  Ry
     charge density cutoff     =      58.7989  Ry
     convergence threshold     =      1.0E-06
     mixing beta               =       0.4000
     number of iterations used =            8  plain     mixing
     Exchange-correlation      = SLA PW PBE PBE ( 1  4  3  4 0 0)

     celldm(1)=   8.851118  celldm(2)=   0.000000  celldm(3)=   0.450000
     celldm(4)=   0.000000  celldm(5)=   0.000000  celldm(6)=   0.000000

     crystal axes: (cart. coord. in units of alat)
               a(1) = (   0.500000  -0.500000   0.225000 )  
               a(2) = (   0.500000   0.500000   0.225000 )  
               a(3) = (  -0.500000  -0.500000   0.225000 )  

     reciprocal axes: (cart. coord. in units 2 pi/alat)
               b(1) = (  1.000000 -1.000000  0.000000 )  
               b(2) = (  0.000000  1.000000  2.222222 )  
               b(3) = ( -1.000000  0.000000  2.222222 )  


     PseudoPot. # 1 for Si read from file:
     ./Si.pbe-rrkj.UPF.txt
     MD5 check sum: 8af8e7039d270e0118f3b3651cf51d3d
     Pseudo is Norm-conserving, Zval =  4.0
     Generated by new atomic code, or converted to UPF format
     Using radial grid of  883 points,  3 beta functions with: 
                l(1) =   0
                l(2) =   0
                l(3) =   1

     atomic species   valence    mass     pseudopotential
        Si             4.00    28.08500     Si( 1.00)

     16 Sym. Ops., with inversion, found ( 8 have fractional translation)



   Cartesian axes

     site n.     atom                  positions (alat units)
         1           Si  tau(   1) = (   0.0000000   0.0000000   0.0000000  )
         2           Si  tau(   2) = (   0.5000000   0.0000000   0.1125000  )

     number of k points=    18  gaussian smearing, width (Ry)=  0.0001
                       cart. coord. in units 2pi/alat
        k(    1) = (   0.0000000   0.0000000   0.0000000), wk =   0.0160000
        k(    2) = (  -0.2000000   0.0000000   0.4444444), wk =   0.1280000
        k(    3) = (  -0.4000000   0.0000000   0.8888889), wk =   0.1280000
        k(    4) = (  -0.2000000   0.2000000   0.8888889), wk =   0.1280000
        k(    5) = (  -0.4000000   0.2000000   1.3333333), wk =   0.2560000
        k(    6) = (   0.4000000   0.2000000  -0.4444444), wk =   0.2560000
        k(    7) = (   0.2000000   0.2000000   0.0000000), wk =   0.0640000
        k(    8) = (  -0.4000000   0.4000000   1.7777778), wk =   0.1280000
        k(    9) = (   0.4000000   0.4000000   0.0000000), wk =   0.0640000
        k(   10) = (   0.0000000   0.0000000   0.8888889), wk =   0.0320000
        k(   11) = (  -0.2000000   0.0000000   1.3333333), wk =   0.1280000
        k(   12) = (   0.6000000   0.0000000  -0.4444444), wk =   0.1280000
        k(   13) = (   0.4000000   0.0000000   0.0000000), wk =   0.0640000
        k(   14) = (  -0.2000000   0.2000000   1.7777778), wk =   0.1280000
        k(   15) = (   0.6000000   0.2000000   0.0000000), wk =   0.1280000
        k(   16) = (   0.4000000  -0.6000000  -1.3333333), wk =   0.1280000
        k(   17) = (   0.0000000   0.0000000   1.7777778), wk =   0.0320000
        k(   18) = (   0.8000000   0.0000000   0.0000000), wk =   0.0640000

     Dense  grid:     1165 G-vectors     FFT dimensions: (  16,  16,  16)

     Estimated max dynamical RAM per process >       1.78 MB

     Initial potential from superposition of free atoms

     starting charge    7.99889, renormalised to    8.00000
     Starting wfcs are    8 randomized atomic wfcs +    4 random wfcs

     total cpu time spent up to now is        0.1 secs

     Self-consistent Calculation

     iteration #  1     ecut=    14.70 Ry     beta= 0.40
     Davidson diagonalization with overlap
     ethr =  1.00E-02,  avg # of iterations =  4.6

     Threshold (ethr) on eigenvalues was too large:
     Diagonalizing with lowered threshold

     Davidson diagonalization with overlap
     ethr =  2.65E-04,  avg # of iterations =  1.3

     total cpu time spent up to now is        0.3 secs

     total energy              =     -15.56658056 Ry
     Harris-Foulkes estimate   =     -15.56916329 Ry
     estimated scf accuracy    <       0.02117256 Ry

     iteration #  2     ecut=    14.70 Ry     beta= 0.40
     Davidson diagonalization with overlap
     ethr =  2.65E-04,  avg # of iterations =  1.0

     total cpu time spent up to now is        0.3 secs

     total energy              =     -15.56643387 Ry
     Harris-Foulkes estimate   =     -15.56687227 Ry
     estimated scf accuracy    <       0.00619196 Ry

     iteration #  3     ecut=    14.70 Ry     beta= 0.40
     Davidson diagonalization with overlap
     ethr =  7.74E-05,  avg # of iterations =  1.0

     total cpu time spent up to now is        0.4 secs

     total energy              =     -15.56677101 Ry
     Harris-Foulkes estimate   =     -15.56676424 Ry
     estimated scf accuracy    <       0.00013937 Ry

     iteration #  4     ecut=    14.70 Ry     beta= 0.40
     Davidson diagonalization with overlap
     ethr =  1.74E-06,  avg # of iterations =  3.3

     total cpu time spent up to now is        0.5 secs

     total energy              =     -15.56678340 Ry
     Harris-Foulkes estimate   =     -15.56678371 Ry
     estimated scf accuracy    <       0.00000116 Ry

     iteration #  5     ecut=    14.70 Ry     beta= 0.40
     Davidson diagonalization with overlap
     ethr =  1.46E-08,  avg # of iterations =  2.5

     total cpu time spent up to now is        0.5 secs

     End of self-consistent calculation

          k = 0.0000 0.0000 0.0000 (   135 PWs)   bands (ev):

    -2.6874   9.1350   9.1350   9.3300  13.2802  20.4399  21.9010  21.9010
    23.1437  32.6439  32.8542  33.3085

          k =-0.2000 0.0000 0.4444 (   146 PWs)   bands (ev):

    -1.1416   8.1855   9.3732  12.8080  16.0398  18.1461  20.1210  23.0751
    23.3804  24.6756  24.9865  27.1697

          k =-0.4000 0.0000 0.8889 (   141 PWs)   bands (ev):

     3.3852   9.3763  11.1949  11.5682  14.7105  16.7712  18.6713  20.4477
    21.4332  22.8372  26.9248  28.4177

          k =-0.2000 0.2000 0.8889 (   144 PWs)   bands (ev):

     2.8880   9.7192  12.4236  12.5865  14.3620  16.8211  17.9023  19.1902
    21.4865  21.9771  24.3333  30.7922

          k =-0.4000 0.2000 1.3333 (   145 PWs)   bands (ev):

     4.8476   7.1488   9.9218  12.1822  14.0549  16.0762  19.6210  22.2897
    23.3726  25.3230  26.9874  27.7118

          k = 0.4000 0.2000-0.4444 (   150 PWs)   bands (ev):

    -0.1137   4.8822   9.9129  14.5846  14.6668  18.4367  20.0437  21.7466
    23.1294  27.4191  28.5417  30.9959

          k = 0.2000 0.2000 0.0000 (   150 PWs)   bands (ev):

    -2.1707   5.3631   9.6108  11.4067  16.3495  16.7835  18.6680  26.1974
    26.4426  32.0412  32.0854  32.1583

          k =-0.4000 0.4000 1.7778 (   150 PWs)   bands (ev):

     1.9174   1.9210  11.7669  11.8485  16.0621  16.7753  20.4423  21.9062
    27.5804  27.6382  30.2592  32.2051

          k = 0.4000 0.4000 0.0000 (   152 PWs)   bands (ev):

    -0.6201   1.9229  11.0447  13.0637  13.4406  15.4846  22.1339  27.4808
    30.8051  30.8673  31.4362  31.4460

          k = 0.0000 0.0000 0.8889 (   147 PWs)   bands (ev):

     2.3876  11.4482  13.6560  13.6560  13.8333  16.0821  16.0821  17.9126
    18.5384  25.8266  26.1566  26.1566

          k =-0.2000 0.0000 1.3333 (   151 PWs)   bands (ev):

     6.2038   7.6492   9.3685   9.7653  11.5311  18.3607  19.1846  22.5673
    25.9236  27.4881  28.2073  29.2831

          k = 0.6000 0.0000-0.4444 (   151 PWs)   bands (ev):

     0.9016   5.2359   6.7788  10.9678  16.9751  20.1655  22.5861  24.6551
    24.7560  26.7355  27.6310  33.2972

          k = 0.4000 0.0000 0.0000 (   149 PWs)   bands (ev):

    -1.6536   5.2844   6.7073  13.3687  14.8647  17.7291  22.6556  22.7396
    29.5349  30.4257  32.1487  33.3673

          k =-0.2000 0.2000 1.7778 (   152 PWs)   bands (ev):

     2.8787   2.8906   8.1055   8.1264  16.9720  21.5812  23.5067  24.9134
    28.4730  28.5465  28.9273  29.9994

          k = 0.6000 0.2000 0.0000 (   153 PWs)   bands (ev):

    -0.1134   2.3934   7.6169  10.0267  17.1754  19.5942  22.7881  26.6584
    29.3033  30.0734  31.2996  32.7979

          k = 0.4000-0.6000-1.3333 (   144 PWs)   bands (ev):

     4.3695   6.7535  11.6165  11.6804  15.7949  18.0607  18.4732  19.9367
    22.2223  22.6786  27.3489  27.9557

          k = 0.0000 0.0000 1.7778 (   162 PWs)   bands (ev):

     4.2085   4.2347   5.8272   5.8272  16.7404  24.6552  27.2053  27.2053
    28.4276  28.4276  29.1479  30.1305

          k = 0.8000 0.0000 0.0000 (   156 PWs)   bands (ev):

     1.3724   3.2451   4.8333   6.6675  21.5969  23.8532  25.2014  25.5118
    27.8035  30.2646  30.6120  32.1317

     the Fermi energy is    14.0535 ev

!    total energy              =     -15.56678401 Ry
     Harris-Foulkes estimate   =     -15.56678401 Ry
     estimated scf accuracy    <       0.00000013 Ry

     The total energy is the sum of the following terms:

     one-electron contribution =      10.77506460 Ry
     hartree contribution      =       0.16350113 Ry
     xc contribution           =      -5.27487146 Ry
     ewald contribution        =     -21.23047605 Ry
     smearing contrib. (-TS)   =      -0.00000223 Ry

     convergence has been achieved in   5 iterations

     Forces acting on atoms (cartesian axes, Ry/au):

     atom    1 type  1   force =     0.00000000    0.00000000    0.00000000
     atom    2 type  1   force =     0.00000000    0.00000000    0.00000000

     Total force =     0.000000     Total SCF correction =     0.000000


     Computing stress (Cartesian axis) and pressure

          total   stress  (Ry/bohr**3)                   (kbar)     P=  640.76
   0.00215617   0.00000000   0.00000000        317.18      0.00      0.00
   0.00000000   0.00215617  -0.00000000          0.00    317.18     -0.00
   0.00000000  -0.00000000   0.00875501          0.00     -0.00   1287.91


     Writing output data file beta_relax.save/

     init_run     :      0.04s CPU      0.04s WALL (       1 calls)
     electrons    :      0.41s CPU      0.42s WALL (       1 calls)
     forces       :      0.00s CPU      0.00s WALL (       1 calls)
     stress       :      0.01s CPU      0.01s WALL (       1 calls)

     Called by init_run:
     wfcinit      :      0.02s CPU      0.02s WALL (       1 calls)
     potinit      :      0.00s CPU      0.00s WALL (       1 calls)
     hinit0       :      0.02s CPU      0.02s WALL (       1 calls)

     Called by electrons:
     c_bands      :      0.35s CPU      0.36s WALL (       6 calls)
     sum_band     :      0.05s CPU      0.05s WALL (       6 calls)
     v_of_rho     :      0.01s CPU      0.01s WALL (       6 calls)
     mix_rho      :      0.00s CPU      0.00s WALL (       6 calls)

     Called by c_bands:
     init_us_2    :      0.01s CPU      0.01s WALL (     270 calls)
     cegterg      :      0.34s CPU      0.35s WALL (     108 calls)

     Called by sum_band:

     Called by *egterg:
     h_psi        :      0.22s CPU      0.23s WALL (     373 calls)
     g_psi        :      0.00s CPU      0.00s WALL (     247 calls)
     cdiaghg      :      0.08s CPU      0.08s WALL (     337 calls)

     Called by h_psi:
     h_psi:pot    :      0.21s CPU      0.23s WALL (     373 calls)
     h_psi:calbec :      0.01s CPU      0.01s WALL (     373 calls)
     vloc_psi     :      0.19s CPU      0.21s WALL (     373 calls)
     add_vuspsi   :      0.01s CPU      0.01s WALL (     373 calls)

     General routines
     calbec       :      0.01s CPU      0.01s WALL (     463 calls)
     fft          :      0.00s CPU      0.00s WALL (      68 calls)
     ffts         :      0.00s CPU      0.00s WALL (       6 calls)
     fftw         :      0.19s CPU      0.20s WALL (    8076 calls)

     Parallel routines

     PWSCF        :      0.54s CPU      0.57s WALL


   This run was terminated on:   0:10:39  30Nov2019            

=------------------------------------------------------------------------------=
   JOB DONE.
=------------------------------------------------------------------------------=
Note: The following floating-point exceptions are signalling: IEEE_UNDERFLOW_FLAG
