
     Program PWSCF v.6.4.1 starts on 30Nov2019 at  0: 8:18 

     This program is part of the open-source Quantum ESPRESSO suite
     for quantum simulation of materials; please cite
         "P. Giannozzi et al., J. Phys.:Condens. Matter 21 395502 (2009);
         "P. Giannozzi et al., J. Phys.:Condens. Matter 29 465901 (2017);
          URL http://www.quantum-espresso.org", 
     in publications or presentations arising from this work. More details at
     http://www.quantum-espresso.org/quote

     Parallel version (MPI), running on     1 processors

     MPI processes distributed on     1 nodes
     Reading input from /Users/david/Library/Mobile Documents/com~apple~CloudDocs/MSE 215/DFT/convergeDiamond/(2,150)/input.txt

     Current dimensions of program PWSCF are:
     Max number of different atomic species (ntypx) = 10
     Max number of k-points (npk) =  40000
     Max angular momentum in pseudopotentials (lmaxx) =  3

     Subspace diagonalization in iterative solution of the eigenvalue problem:
     a serial algorithm will be used


     G-vector sticks info
     --------------------
     sticks:   dense  smooth     PW     G-vecs:    dense   smooth      PW
     Sum         187     187     61                 1639     1639     331



     bravais-lattice index     =            2
     lattice parameter (alat)  =      11.0000  a.u.
     unit-cell volume          =     332.7500 (a.u.)^3
     number of atoms/cell      =            2
     number of atomic types    =            1
     number of electrons       =         8.00
     number of Kohn-Sham states=            4
     kinetic-energy cutoff     =      11.0248  Ry
     charge density cutoff     =      44.0992  Ry
     convergence threshold     =      1.0E-06
     mixing beta               =       0.4000
     number of iterations used =            8  plain     mixing
     Exchange-correlation      = SLA PW PBE PBE ( 1  4  3  4 0 0)

     celldm(1)=  11.000000  celldm(2)=   0.000000  celldm(3)=   0.000000
     celldm(4)=   0.000000  celldm(5)=   0.000000  celldm(6)=   0.000000

     crystal axes: (cart. coord. in units of alat)
               a(1) = (  -0.500000   0.000000   0.500000 )  
               a(2) = (   0.000000   0.500000   0.500000 )  
               a(3) = (  -0.500000   0.500000   0.000000 )  

     reciprocal axes: (cart. coord. in units 2 pi/alat)
               b(1) = ( -1.000000 -1.000000  1.000000 )  
               b(2) = (  1.000000  1.000000  1.000000 )  
               b(3) = ( -1.000000  1.000000 -1.000000 )  


     PseudoPot. # 1 for Si read from file:
     ./Si.pbe-rrkj.UPF.txt
     MD5 check sum: 8af8e7039d270e0118f3b3651cf51d3d
     Pseudo is Norm-conserving, Zval =  4.0
     Generated by new atomic code, or converted to UPF format
     Using radial grid of  883 points,  3 beta functions with: 
                l(1) =   0
                l(2) =   0
                l(3) =   1

     atomic species   valence    mass     pseudopotential
        Si             4.00    28.08500     Si( 1.00)

     48 Sym. Ops., with inversion, found (24 have fractional translation)



   Cartesian axes

     site n.     atom                  positions (alat units)
         1           Si  tau(   1) = (   0.0000000   0.0000000   0.0000000  )
         2           Si  tau(   2) = (  -0.2500000   0.2500000   0.2500000  )

     number of k points=     3
                       cart. coord. in units 2pi/alat
        k(    1) = (   0.0000000   0.0000000   0.0000000), wk =   0.2500000
        k(    2) = (   0.5000000  -0.5000000   0.5000000), wk =   1.0000000
        k(    3) = (   0.0000000  -1.0000000   0.0000000), wk =   0.7500000

     Dense  grid:     1639 G-vectors     FFT dimensions: (  20,  20,  20)

     Estimated max dynamical RAM per process >       1.59 MB

     Initial potential from superposition of free atoms

     starting charge    7.99889, renormalised to    8.00000
     Starting wfcs are    8 randomized atomic wfcs

     total cpu time spent up to now is        0.1 secs

     Self-consistent Calculation

     iteration #  1     ecut=    11.02 Ry     beta= 0.40
     Davidson diagonalization with overlap
     ethr =  1.00E-02,  avg # of iterations =  2.0

     Threshold (ethr) on eigenvalues was too large:
     Diagonalizing with lowered threshold

     Davidson diagonalization with overlap
     ethr =  8.96E-04,  avg # of iterations =  2.0

     total cpu time spent up to now is        0.1 secs

     total energy              =     -15.53399989 Ry
     Harris-Foulkes estimate   =     -15.54456435 Ry
     estimated scf accuracy    <       0.07876209 Ry

     iteration #  2     ecut=    11.02 Ry     beta= 0.40
     Davidson diagonalization with overlap
     ethr =  9.85E-04,  avg # of iterations =  1.0

     total cpu time spent up to now is        0.1 secs

     total energy              =     -15.53105558 Ry
     Harris-Foulkes estimate   =     -15.53476647 Ry
     estimated scf accuracy    <       0.02535267 Ry

     iteration #  3     ecut=    11.02 Ry     beta= 0.40
     Davidson diagonalization with overlap
     ethr =  3.17E-04,  avg # of iterations =  1.0

     total cpu time spent up to now is        0.1 secs

     total energy              =     -15.53209312 Ry
     Harris-Foulkes estimate   =     -15.53209988 Ry
     estimated scf accuracy    <       0.00023191 Ry

     iteration #  4     ecut=    11.02 Ry     beta= 0.40
     Davidson diagonalization with overlap
     ethr =  2.90E-06,  avg # of iterations =  3.0

     total cpu time spent up to now is        0.1 secs

     total energy              =     -15.53220781 Ry
     Harris-Foulkes estimate   =     -15.53220666 Ry
     estimated scf accuracy    <       0.00000494 Ry

     iteration #  5     ecut=    11.02 Ry     beta= 0.40
     Davidson diagonalization with overlap
     ethr =  6.17E-08,  avg # of iterations =  3.0

     total cpu time spent up to now is        0.2 secs

     End of self-consistent calculation

          k = 0.0000 0.0000 0.0000 (   181 PWs)   bands (ev):

    -6.0814   4.5468   4.5468   4.5468

          k = 0.5000-0.5000 0.5000 (   210 PWs)   bands (ev):

    -4.2342  -1.5886   3.4923   3.4923

          k = 0.0000-1.0000 0.0000 (   206 PWs)   bands (ev):

    -2.6407  -2.6407   2.1435   2.1435

     highest occupied level (ev):     4.5468

!    total energy              =     -15.53220947 Ry
     Harris-Foulkes estimate   =     -15.53220942 Ry
     estimated scf accuracy    <       0.00000031 Ry

     The total energy is the sum of the following terms:

     one-electron contribution =       3.37994432 Ry
     hartree contribution      =       1.43022598 Ry
     xc contribution           =      -4.67169451 Ry
     ewald contribution        =     -15.67068527 Ry

     convergence has been achieved in   5 iterations

     Forces acting on atoms (cartesian axes, Ry/au):

     atom    1 type  1   force =     0.00000000    0.00000000   -0.00000000
     atom    2 type  1   force =    -0.00000000   -0.00000000    0.00000000

     Total force =     0.000000     Total SCF correction =     0.000000


     Computing stress (Cartesian axis) and pressure

          total   stress  (Ry/bohr**3)                   (kbar)     P=  -90.13
  -0.00061267   0.00000000   0.00000000        -90.13      0.00      0.00
   0.00000000  -0.00061267   0.00000000          0.00    -90.13      0.00
   0.00000000   0.00000000  -0.00061267          0.00      0.00    -90.13


     Writing output data file diamond_relax.save/

     init_run     :      0.02s CPU      0.03s WALL (       1 calls)
     electrons    :      0.06s CPU      0.06s WALL (       1 calls)
     forces       :      0.00s CPU      0.00s WALL (       1 calls)
     stress       :      0.01s CPU      0.01s WALL (       1 calls)

     Called by init_run:
     wfcinit      :      0.00s CPU      0.01s WALL (       1 calls)
     potinit      :      0.00s CPU      0.00s WALL (       1 calls)
     hinit0       :      0.01s CPU      0.01s WALL (       1 calls)

     Called by electrons:
     c_bands      :      0.03s CPU      0.03s WALL (       6 calls)
     sum_band     :      0.01s CPU      0.01s WALL (       6 calls)
     v_of_rho     :      0.02s CPU      0.02s WALL (       6 calls)
     mix_rho      :      0.00s CPU      0.00s WALL (       6 calls)

     Called by c_bands:
     init_us_2    :      0.00s CPU      0.00s WALL (      45 calls)
     cegterg      :      0.03s CPU      0.03s WALL (      18 calls)

     Called by sum_band:

     Called by *egterg:
     h_psi        :      0.03s CPU      0.03s WALL (      57 calls)
     g_psi        :      0.00s CPU      0.00s WALL (      36 calls)
     cdiaghg      :      0.00s CPU      0.00s WALL (      51 calls)

     Called by h_psi:
     h_psi:pot    :      0.03s CPU      0.03s WALL (      57 calls)
     h_psi:calbec :      0.00s CPU      0.00s WALL (      57 calls)
     vloc_psi     :      0.03s CPU      0.03s WALL (      57 calls)
     add_vuspsi   :      0.00s CPU      0.00s WALL (      57 calls)

     General routines
     calbec       :      0.00s CPU      0.00s WALL (      72 calls)
     fft          :      0.01s CPU      0.01s WALL (      68 calls)
     ffts         :      0.00s CPU      0.00s WALL (       6 calls)
     fftw         :      0.03s CPU      0.03s WALL (     480 calls)

     Parallel routines

     PWSCF        :      0.16s CPU      0.17s WALL


   This run was terminated on:   0: 8:19  30Nov2019            

=------------------------------------------------------------------------------=
   JOB DONE.
=------------------------------------------------------------------------------=
Note: The following floating-point exceptions are signalling: IEEE_UNDERFLOW_FLAG
