
     Program PWSCF v.6.1 starts on 27Sep2017 at 19:30: 1 

     This program is part of the open-source Quantum ESPRESSO suite
     for quantum simulation of materials; please cite
         "P. Giannozzi et al., J. Phys.:Condens. Matter 21 395502 (2009);
          URL http://www.quantum-espresso.org", 
     in publications or presentations arising from this work. More details at
     http://www.quantum-espresso.org/quote

     Parallel version (MPI & OpenMP), running on      24 processor cores
     Number of MPI processes:                24
     Threads/MPI process:                     1
     R & G space division:  proc/nbgrp/npool/nimage =      24
     Waiting for input...
     Reading input from standard input

     Current dimensions of program PWSCF are:
     Max number of different atomic species (ntypx) = 10
     Max number of k-points (npk) =  40000
     Max angular momentum in pseudopotentials (lmaxx) =  3

     Subspace diagonalization in iterative solution of the eigenvalue problem:
     a serial algorithm will be used

 
     Parallelization info
     --------------------
     sticks:   dense  smooth     PW     G-vecs:    dense   smooth      PW
     Min          59      59     17                 1489     1489     232
     Max          60      60     18                 1494     1494     235
     Sum        1417    1417    421                35749    35749    5601
 


     bravais-lattice index     =            2
     lattice parameter (alat)  =      10.2078  a.u.
     unit-cell volume          =     265.9093 (a.u.)^3
     number of atoms/cell      =            2
     number of atomic types    =            1
     number of electrons       =         8.00
     number of Kohn-Sham states=            4
     kinetic-energy cutoff     =     100.0000  Ry
     charge density cutoff     =     400.0000  Ry
     convergence threshold     =      1.0E-14
     mixing beta               =       0.7000
     number of iterations used =            8  plain     mixing
     Exchange-correlation      =  SLA  PZ   NOGX NOGC ( 1  1  0  0 0 0)

     celldm(1)=  10.207777  celldm(2)=   0.000000  celldm(3)=   0.000000
     celldm(4)=   0.000000  celldm(5)=   0.000000  celldm(6)=   0.000000

     crystal axes: (cart. coord. in units of alat)
               a(1) = (  -0.500000   0.000000   0.500000 )  
               a(2) = (   0.000000   0.500000   0.500000 )  
               a(3) = (  -0.500000   0.500000   0.000000 )  

     reciprocal axes: (cart. coord. in units 2 pi/alat)
               b(1) = ( -1.000000 -1.000000  1.000000 )  
               b(2) = (  1.000000  1.000000  1.000000 )  
               b(3) = ( -1.000000  1.000000 -1.000000 )  


     PseudoPot. # 1 for Si read from file:
     /global/homes/c/cpolanco/Materials/pseudo/Si.pz-vbc.UPF
     MD5 check sum: 6dfa03ddd5817404712e03e4d12deb78
     Pseudo is Norm-conserving, Zval =  4.0
     Generated by new atomic code, or converted to UPF format
     Using radial grid of  431 points,  2 beta functions with: 
                l(1) =   0
                l(2) =   1

     atomic species   valence    mass     pseudopotential
        Si             4.00    28.08600     Si( 1.00)

     24 Sym. Ops. (no inversion) found
          (note: 24 additional sym.ops. were found but ignored
           their fractional translations are incommensurate with FFT grid)


   Cartesian axes

     site n.     atom                  positions (alat units)
         1           Si  tau(   1) = (   0.0000000   0.0000000   0.0000000  )
         2           Si  tau(   2) = (   0.2500000   0.2500000   0.2500000  )

     number of k points=    29
                       cart. coord. in units 2pi/alat
        k(    1) = (   0.0000000   0.0000000   0.0000000), wk =   0.0039062
        k(    2) = (  -0.1250000   0.1250000  -0.1250000), wk =   0.0312500
        k(    3) = (  -0.2500000   0.2500000  -0.2500000), wk =   0.0312500
        k(    4) = (  -0.3750000   0.3750000  -0.3750000), wk =   0.0312500
        k(    5) = (   0.5000000  -0.5000000   0.5000000), wk =   0.0156250
        k(    6) = (   0.0000000   0.2500000   0.0000000), wk =   0.0234375
        k(    7) = (  -0.1250000   0.3750000  -0.1250000), wk =   0.0937500
        k(    8) = (  -0.2500000   0.5000000  -0.2500000), wk =   0.0937500
        k(    9) = (   0.6250000  -0.3750000   0.6250000), wk =   0.0937500
        k(   10) = (   0.5000000  -0.2500000   0.5000000), wk =   0.0937500
        k(   11) = (   0.3750000  -0.1250000   0.3750000), wk =   0.0937500
        k(   12) = (   0.2500000   0.0000000   0.2500000), wk =   0.0468750
        k(   13) = (   0.0000000   0.5000000   0.0000000), wk =   0.0234375
        k(   14) = (  -0.1250000   0.6250000  -0.1250000), wk =   0.0937500
        k(   15) = (   0.7500000  -0.2500000   0.7500000), wk =   0.0937500
        k(   16) = (   0.6250000  -0.1250000   0.6250000), wk =   0.0937500
        k(   17) = (   0.5000000   0.0000000   0.5000000), wk =   0.0468750
        k(   18) = (   0.0000000   0.7500000   0.0000000), wk =   0.0234375
        k(   19) = (   0.8750000  -0.1250000   0.8750000), wk =   0.0937500
        k(   20) = (   0.7500000   0.0000000   0.7500000), wk =   0.0468750
        k(   21) = (   0.0000000  -1.0000000   0.0000000), wk =   0.0117188
        k(   22) = (  -0.2500000   0.5000000   0.0000000), wk =   0.0937500
        k(   23) = (   0.6250000  -0.3750000   0.8750000), wk =   0.1875000
        k(   24) = (   0.5000000  -0.2500000   0.7500000), wk =   0.0937500
        k(   25) = (   0.7500000  -0.2500000   1.0000000), wk =   0.0937500
        k(   26) = (   0.6250000  -0.1250000   0.8750000), wk =   0.1875000
        k(   27) = (   0.5000000   0.0000000   0.7500000), wk =   0.0937500
        k(   28) = (  -0.2500000  -1.0000000   0.0000000), wk =   0.0468750
        k(   29) = (  -0.5000000  -1.0000000   0.0000000), wk =   0.0234375

     Dense  grid:    35749 G-vectors     FFT dimensions: (  45,  45,  45)

     Estimated max dynamical RAM per process >       1.29MB

     Estimated total allocated dynamical RAM >      31.06MB

     Initial potential from superposition of free atoms

     starting charge    7.99901, renormalised to    8.00000
     Starting wfc are    8 randomized atomic wfcs

     total cpu time spent up to now is        0.4 secs

     per-process dynamical memory:     2.9 Mb

     Self-consistent Calculation

     iteration #  1     ecut=   100.00 Ry     beta= 0.70
     Davidson diagonalization with overlap
     ethr =  1.00E-02,  avg # of iterations =  2.0

     Threshold (ethr) on eigenvalues was too large:
     Diagonalizing with lowered threshold

     Davidson diagonalization with overlap
     ethr =  7.97E-04,  avg # of iterations =  1.0

     total cpu time spent up to now is        0.6 secs

     total energy              =     -15.84982619 Ry
     Harris-Foulkes estimate   =     -15.87079416 Ry
     estimated scf accuracy    <       0.06161703 Ry

     iteration #  2     ecut=   100.00 Ry     beta= 0.70
     Davidson diagonalization with overlap
     ethr =  7.70E-04,  avg # of iterations =  1.0

     total cpu time spent up to now is        0.7 secs

     total energy              =     -15.85288351 Ry
     Harris-Foulkes estimate   =     -15.85318795 Ry
     estimated scf accuracy    <       0.00216687 Ry

     iteration #  3     ecut=   100.00 Ry     beta= 0.70
     Davidson diagonalization with overlap
     ethr =  2.71E-05,  avg # of iterations =  2.4

     total cpu time spent up to now is        0.8 secs

     total energy              =     -15.85332918 Ry
     Harris-Foulkes estimate   =     -15.85336185 Ry
     estimated scf accuracy    <       0.00007437 Ry

     iteration #  4     ecut=   100.00 Ry     beta= 0.70
     Davidson diagonalization with overlap
     ethr =  9.30E-07,  avg # of iterations =  2.1

     total cpu time spent up to now is        0.8 secs

     total energy              =     -15.85334986 Ry
     Harris-Foulkes estimate   =     -15.85335396 Ry
     estimated scf accuracy    <       0.00000888 Ry

     iteration #  5     ecut=   100.00 Ry     beta= 0.70
     Davidson diagonalization with overlap
     ethr =  1.11E-07,  avg # of iterations =  2.1

     total cpu time spent up to now is        0.9 secs

     total energy              =     -15.85335134 Ry
     Harris-Foulkes estimate   =     -15.85335138 Ry
     estimated scf accuracy    <       0.00000011 Ry

     iteration #  6     ecut=   100.00 Ry     beta= 0.70
     Davidson diagonalization with overlap
     ethr =  1.35E-09,  avg # of iterations =  2.6

     total cpu time spent up to now is        1.0 secs

     total energy              =     -15.85335138 Ry
     Harris-Foulkes estimate   =     -15.85335138 Ry
     estimated scf accuracy    <          2.9E-09 Ry

     iteration #  7     ecut=   100.00 Ry     beta= 0.70
     Davidson diagonalization with overlap
     ethr =  3.68E-11,  avg # of iterations =  2.6

     total cpu time spent up to now is        1.1 secs

     total energy              =     -15.85335138 Ry
     Harris-Foulkes estimate   =     -15.85335138 Ry
     estimated scf accuracy    <          2.9E-11 Ry

     iteration #  8     ecut=   100.00 Ry     beta= 0.70
     Davidson diagonalization with overlap
     ethr =  3.65E-13,  avg # of iterations =  3.3

     total cpu time spent up to now is        1.2 secs

     total energy              =     -15.85335138 Ry
     Harris-Foulkes estimate   =     -15.85335138 Ry
     estimated scf accuracy    <          5.4E-12 Ry

     iteration #  9     ecut=   100.00 Ry     beta= 0.70
     Davidson diagonalization with overlap
     ethr =  1.00E-13,  avg # of iterations =  1.7

     total cpu time spent up to now is        1.3 secs

     total energy              =     -15.85335138 Ry
     Harris-Foulkes estimate   =     -15.85335138 Ry
     estimated scf accuracy    <          1.2E-13 Ry

     iteration # 10     ecut=   100.00 Ry     beta= 0.70
     Davidson diagonalization with overlap
     ethr =  1.00E-13,  avg # of iterations =  1.0

     total cpu time spent up to now is        1.4 secs

     End of self-consistent calculation

          k = 0.0000 0.0000 0.0000 (  4477 PWs)   bands (ev):

    -5.8300   6.2061   6.2061   6.2061

          k =-0.1250 0.1250-0.1250 (  4507 PWs)   bands (ev):

    -5.6230   4.6051   5.9132   5.9132

          k =-0.2500 0.2500-0.2500 (  4510 PWs)   bands (ev):

    -5.0182   2.2559   5.4373   5.4373

          k =-0.3750 0.3750-0.3750 (  4501 PWs)   bands (ev):

    -4.1058   0.2065   5.1074   5.1074

          k = 0.5000-0.5000 0.5000 (  4476 PWs)   bands (ev):

    -3.4453  -0.8427   4.9947   4.9947

          k = 0.0000 0.2500 0.0000 (  4504 PWs)   bands (ev):

    -5.5533   4.8935   5.3857   5.3857

          k =-0.1250 0.3750-0.1250 (  4517 PWs)   bands (ev):

    -5.0777   2.9801   4.8669   4.9518

          k =-0.2500 0.5000-0.2500 (  4508 PWs)   bands (ev):

    -4.2481   0.8896   4.3532   4.5964

          k = 0.6250-0.3750 0.6250 (  4486 PWs)   bands (ev):

    -3.3613  -0.6068   3.9003   4.6231

          k = 0.5000-0.2500 0.5000 (  4491 PWs)   bands (ev):

    -3.6148  -0.2257   3.7125   4.9256

          k = 0.3750-0.1250 0.3750 (  4497 PWs)   bands (ev):

    -4.5602   1.5598   3.8591   5.4251

          k = 0.2500 0.0000 0.2500 (  4477 PWs)   bands (ev):

    -5.2819   3.5267   4.5444   5.9125

          k = 0.0000 0.5000 0.0000 (  4520 PWs)   bands (ev):

    -4.7329   2.7148   4.2862   4.2862

          k =-0.1250 0.6250-0.1250 (  4509 PWs)   bands (ev):

    -4.0117   1.2745   3.4881   3.9636

          k = 0.7500-0.2500 0.7500 (  4482 PWs)   bands (ev):

    -3.0647  -0.1975   2.6082   3.9678

          k = 0.6250-0.1250 0.6250 (  4477 PWs)   bands (ev):

    -2.8512  -0.4657   2.1376   4.2926

          k = 0.5000 0.0000 0.5000 (  4489 PWs)   bands (ev):

    -3.7521   0.7207   2.3750   4.8614

          k = 0.0000 0.7500 0.0000 (  4484 PWs)   bands (ev):

    -3.4015   0.4708   3.5586   3.5586

          k = 0.8750-0.1250 0.8750 (  4479 PWs)   bands (ev):

    -2.4888  -0.6253   2.7002   3.4815

          k = 0.7500 0.0000 0.7500 (  4454 PWs)   bands (ev):

    -2.0305  -1.0339   1.8049   3.7440

          k = 0.0000-1.0000 0.0000 (  4456 PWs)   bands (ev):

    -1.6267  -1.6267   3.3090   3.3090

          k =-0.2500 0.5000 0.0000 (  4503 PWs)   bands (ev):

    -4.4807   1.9234   3.4393   4.7592

          k = 0.6250-0.3750 0.8750 (  4489 PWs)   bands (ev):

    -3.5748   0.3447   2.8290   4.2439

          k = 0.5000-0.2500 0.7500 (  4486 PWs)   bands (ev):

    -2.9014  -0.6278   2.7039   4.0076

          k = 0.7500-0.2500 1.0000 (  4484 PWs)   bands (ev):

    -3.1970   0.2501   2.7770   3.3923

          k = 0.6250-0.1250 0.8750 (  4486 PWs)   bands (ev):

    -2.3006  -0.7332   2.0576   3.1860

          k = 0.5000 0.0000 0.7500 (  4490 PWs)   bands (ev):

    -2.6570  -0.3670   1.8851   3.5717

          k =-0.2500-1.0000 0.0000 (  4472 PWs)   bands (ev):

    -1.5427  -1.5427   2.7194   2.7194

          k =-0.5000-1.0000 0.0000 (  4488 PWs)   bands (ev):

    -1.4495  -1.4495   2.2655   2.2655

     highest occupied level (ev):     6.2061

!    total energy              =     -15.85335138 Ry
     Harris-Foulkes estimate   =     -15.85335138 Ry
     estimated scf accuracy    <          4.0E-15 Ry

     The total energy is the sum of the following terms:

     one-electron contribution =       4.76680131 Ry
     hartree contribution      =       1.08149972 Ry
     xc contribution           =      -4.81476914 Ry
     ewald contribution        =     -16.88688327 Ry

     convergence has been achieved in  10 iterations

     Forces acting on atoms (cartesian axes, Ry/au):

     atom    1 type  1   force =     0.00000000    0.00000000    0.00000000
     atom    2 type  1   force =     0.00000000    0.00000000   -0.00000000

     Total force =     0.000000     Total SCF correction =     0.000000


     Computing stress (Cartesian axis) and pressure

          total   stress  (Ry/bohr**3)                   (kbar)     P=    0.05
   0.00000032  -0.00000000  -0.00000000          0.05     -0.00     -0.00
  -0.00000000   0.00000032   0.00000000         -0.00      0.05      0.00
  -0.00000000   0.00000000   0.00000032         -0.00      0.00      0.05


     Writing output data file Si.save
 
     init_run     :      0.06s CPU      0.23s WALL (       1 calls)
     electrons    :      0.85s CPU      1.01s WALL (       1 calls)
     forces       :      0.00s CPU      0.01s WALL (       1 calls)
     stress       :      0.02s CPU      0.03s WALL (       1 calls)

     Called by init_run:
     wfcinit      :      0.04s CPU      0.11s WALL (       1 calls)
     potinit      :      0.00s CPU      0.01s WALL (       1 calls)

     Called by electrons:
     c_bands      :      0.73s CPU      0.80s WALL (      11 calls)
     sum_band     :      0.11s CPU      0.13s WALL (      11 calls)
     v_of_rho     :      0.00s CPU      0.01s WALL (      11 calls)
     mix_rho      :      0.00s CPU      0.01s WALL (      11 calls)

     Called by c_bands:
     init_us_2    :      0.01s CPU      0.03s WALL (     725 calls)
     cegterg      :      0.69s CPU      0.74s WALL (     319 calls)

     Called by sum_band:

     Called by *egterg:
     h_psi        :      0.62s CPU      0.65s WALL (     980 calls)
     g_psi        :      0.00s CPU      0.00s WALL (     632 calls)
     cdiaghg      :      0.05s CPU      0.10s WALL (     922 calls)

     Called by h_psi:
     h_psi:pot    :      0.61s CPU      0.65s WALL (     980 calls)
     h_psi:calbec :      0.03s CPU      0.04s WALL (     980 calls)
     vloc_psi     :      0.57s CPU      0.59s WALL (     980 calls)
     add_vuspsi   :      0.01s CPU      0.01s WALL (     980 calls)

     General routines
     calbec       :      0.03s CPU      0.05s WALL (    1125 calls)
     fft          :      0.01s CPU      0.05s WALL (      50 calls)
     fftw         :      0.57s CPU      0.64s WALL (    8656 calls)
     davcio       :      0.00s CPU      0.06s WALL (      29 calls)
 
     Parallel routines
     fft_scatter  :      0.29s CPU      0.31s WALL (    8706 calls)
 
     PWSCF        :     1.07s CPU         2.22s WALL

 
   This run was terminated on:  19:30: 3  27Sep2017            

=------------------------------------------------------------------------------=
   JOB DONE.
=------------------------------------------------------------------------------=
