
     Program PWSCF v.6.4.1 starts on 30Nov2019 at  0:10:20 

     This program is part of the open-source Quantum ESPRESSO suite
     for quantum simulation of materials; please cite
         "P. Giannozzi et al., J. Phys.:Condens. Matter 21 395502 (2009);
         "P. Giannozzi et al., J. Phys.:Condens. Matter 29 465901 (2017);
          URL http://www.quantum-espresso.org", 
     in publications or presentations arising from this work. More details at
     http://www.quantum-espresso.org/quote

     Parallel version (MPI), running on     1 processors

     MPI processes distributed on     1 nodes
     Reading input from /Users/david/Library/Mobile Documents/com~apple~CloudDocs/MSE 215/DFT/convergeBeta/(2,150)/input.txt

     Current dimensions of program PWSCF are:
     Max number of different atomic species (ntypx) = 10
     Max number of k-points (npk) =  40000
     Max angular momentum in pseudopotentials (lmaxx) =  3

     Subspace diagonalization in iterative solution of the eigenvalue problem:
     a serial algorithm will be used


     G-vector sticks info
     --------------------
     sticks:   dense  smooth     PW     G-vecs:    dense   smooth      PW
     Sum         143     143     81                  749      749     303



     bravais-lattice index     =            7
     lattice parameter (alat)  =       8.8511  a.u.
     unit-cell volume          =     156.0188 (a.u.)^3
     number of atoms/cell      =            2
     number of atomic types    =            1
     number of electrons       =         8.00
     number of Kohn-Sham states=           12
     kinetic-energy cutoff     =      11.0248  Ry
     charge density cutoff     =      44.0992  Ry
     convergence threshold     =      1.0E-06
     mixing beta               =       0.4000
     number of iterations used =            8  plain     mixing
     Exchange-correlation      = SLA PW PBE PBE ( 1  4  3  4 0 0)

     celldm(1)=   8.851118  celldm(2)=   0.000000  celldm(3)=   0.450000
     celldm(4)=   0.000000  celldm(5)=   0.000000  celldm(6)=   0.000000

     crystal axes: (cart. coord. in units of alat)
               a(1) = (   0.500000  -0.500000   0.225000 )  
               a(2) = (   0.500000   0.500000   0.225000 )  
               a(3) = (  -0.500000  -0.500000   0.225000 )  

     reciprocal axes: (cart. coord. in units 2 pi/alat)
               b(1) = (  1.000000 -1.000000  0.000000 )  
               b(2) = (  0.000000  1.000000  2.222222 )  
               b(3) = ( -1.000000  0.000000  2.222222 )  


     PseudoPot. # 1 for Si read from file:
     ./Si.pbe-rrkj.UPF.txt
     MD5 check sum: 8af8e7039d270e0118f3b3651cf51d3d
     Pseudo is Norm-conserving, Zval =  4.0
     Generated by new atomic code, or converted to UPF format
     Using radial grid of  883 points,  3 beta functions with: 
                l(1) =   0
                l(2) =   0
                l(3) =   1

     atomic species   valence    mass     pseudopotential
        Si             4.00    28.08500     Si( 1.00)

     16 Sym. Ops., with inversion, found ( 8 have fractional translation)



   Cartesian axes

     site n.     atom                  positions (alat units)
         1           Si  tau(   1) = (   0.0000000   0.0000000   0.0000000  )
         2           Si  tau(   2) = (   0.5000000   0.0000000   0.1125000  )

     number of k points=     4  gaussian smearing, width (Ry)=  0.0001
                       cart. coord. in units 2pi/alat
        k(    1) = (   0.0000000   0.0000000   0.0000000), wk =   0.2500000
        k(    2) = (   0.5000000   0.0000000  -1.1111111), wk =   1.0000000
        k(    3) = (   0.5000000  -0.5000000  -2.2222222), wk =   0.5000000
        k(    4) = (   0.0000000   0.0000000  -2.2222222), wk =   0.2500000

     Dense  grid:      749 G-vectors     FFT dimensions: (  16,  16,  16)

     Estimated max dynamical RAM per process >       1.07 MB

     Initial potential from superposition of free atoms

     starting charge    7.99889, renormalised to    8.00000
     Starting wfcs are    8 randomized atomic wfcs +    4 random wfcs

     total cpu time spent up to now is        0.1 secs

     Self-consistent Calculation

     iteration #  1     ecut=    11.02 Ry     beta= 0.40
     Davidson diagonalization with overlap
     ethr =  1.00E-02,  avg # of iterations =  4.5

     Threshold (ethr) on eigenvalues was too large:
     Diagonalizing with lowered threshold

     Davidson diagonalization with overlap
     ethr =  3.64E-04,  avg # of iterations =  1.0

     total cpu time spent up to now is        0.1 secs

     total energy              =     -15.34122109 Ry
     Harris-Foulkes estimate   =     -15.34240397 Ry
     estimated scf accuracy    <       0.02899266 Ry

     iteration #  2     ecut=    11.02 Ry     beta= 0.40
     Davidson diagonalization with overlap
     ethr =  3.62E-04,  avg # of iterations =  1.0

     total cpu time spent up to now is        0.1 secs

     total energy              =     -15.34166844 Ry
     Harris-Foulkes estimate   =     -15.34139399 Ry
     estimated scf accuracy    <       0.00961710 Ry

     iteration #  3     ecut=    11.02 Ry     beta= 0.40
     Davidson diagonalization with overlap
     ethr =  1.20E-04,  avg # of iterations =  1.0

     total cpu time spent up to now is        0.2 secs

     total energy              =     -15.34187881 Ry
     Harris-Foulkes estimate   =     -15.34189420 Ry
     estimated scf accuracy    <       0.00010538 Ry

     iteration #  4     ecut=    11.02 Ry     beta= 0.40
     Davidson diagonalization with overlap
     ethr =  1.32E-06,  avg # of iterations =  1.8

     total cpu time spent up to now is        0.2 secs

     End of self-consistent calculation

          k = 0.0000 0.0000 0.0000 (    95 PWs)   bands (ev):

    -2.6203   9.2121   9.2121   9.5794  13.3692  20.6977  21.9464  21.9464
    23.1600  32.7740  32.9590  34.0565

          k = 0.5000 0.0000-1.1111 (    96 PWs)   bands (ev):

     6.1831   7.3167  10.9711  13.2971  13.7761  14.5153  19.3360  19.8949
    23.3431  26.2738  26.5455  28.6967

          k = 0.5000-0.5000-2.2222 (    90 PWs)   bands (ev):

     0.6330   0.6330  12.2167  12.2167  14.3676  14.3676  25.5282  25.5282
    30.8365  30.8365  31.4918  31.4918

          k = 0.0000 0.0000-2.2222 (    90 PWs)   bands (ev):

     3.0956   3.0956   4.6650   4.6650  24.4242  24.4242  26.3789  26.3789
    29.1486  29.1486  31.3390  31.3390

     the Fermi energy is    13.3538 ev

!    total energy              =     -15.34188856 Ry
     Harris-Foulkes estimate   =     -15.34188858 Ry
     estimated scf accuracy    <       0.00000068 Ry

     The total energy is the sum of the following terms:

     one-electron contribution =      10.99274640 Ry
     hartree contribution      =       0.19305120 Ry
     xc contribution           =      -5.29721028 Ry
     ewald contribution        =     -21.23047588 Ry
     smearing contrib. (-TS)   =      -0.00000000 Ry

     convergence has been achieved in   4 iterations

     Forces acting on atoms (cartesian axes, Ry/au):

     atom    1 type  1   force =     0.00000000    0.00000000    0.00000000
     atom    2 type  1   force =     0.00000000    0.00000000    0.00000000

     Total force =     0.000000     Total SCF correction =     0.000000


     Computing stress (Cartesian axis) and pressure

          total   stress  (Ry/bohr**3)                   (kbar)     P=  761.43
   0.00173041   0.00000000  -0.00000000        254.55      0.00     -0.00
   0.00000000   0.00173041  -0.00000000          0.00    254.55     -0.00
   0.00000000  -0.00000000   0.01206742          0.00     -0.00   1775.18


     Writing output data file beta_relax.save/

     init_run     :      0.02s CPU      0.02s WALL (       1 calls)
     electrons    :      0.07s CPU      0.07s WALL (       1 calls)
     forces       :      0.00s CPU      0.00s WALL (       1 calls)
     stress       :      0.00s CPU      0.00s WALL (       1 calls)

     Called by init_run:
     wfcinit      :      0.00s CPU      0.00s WALL (       1 calls)
     potinit      :      0.00s CPU      0.00s WALL (       1 calls)
     hinit0       :      0.01s CPU      0.02s WALL (       1 calls)

     Called by electrons:
     c_bands      :      0.05s CPU      0.06s WALL (       5 calls)
     sum_band     :      0.01s CPU      0.01s WALL (       5 calls)
     v_of_rho     :      0.01s CPU      0.01s WALL (       5 calls)
     mix_rho      :      0.00s CPU      0.00s WALL (       5 calls)

     Called by c_bands:
     init_us_2    :      0.00s CPU      0.00s WALL (      52 calls)
     cegterg      :      0.05s CPU      0.06s WALL (      20 calls)

     Called by sum_band:

     Called by *egterg:
     h_psi        :      0.04s CPU      0.04s WALL (      61 calls)
     g_psi        :      0.00s CPU      0.00s WALL (      37 calls)
     cdiaghg      :      0.01s CPU      0.01s WALL (      53 calls)

     Called by h_psi:
     h_psi:pot    :      0.04s CPU      0.04s WALL (      61 calls)
     h_psi:calbec :      0.00s CPU      0.00s WALL (      61 calls)
     vloc_psi     :      0.03s CPU      0.03s WALL (      61 calls)
     add_vuspsi   :      0.00s CPU      0.00s WALL (      61 calls)

     General routines
     calbec       :      0.00s CPU      0.00s WALL (      81 calls)
     fft          :      0.00s CPU      0.00s WALL (      58 calls)
     ffts         :      0.00s CPU      0.00s WALL (       5 calls)
     fftw         :      0.03s CPU      0.03s WALL (    1482 calls)

     Parallel routines

     PWSCF        :      0.18s CPU      0.19s WALL


   This run was terminated on:   0:10:20  30Nov2019            

=------------------------------------------------------------------------------=
   JOB DONE.
=------------------------------------------------------------------------------=
Note: The following floating-point exceptions are signalling: IEEE_UNDERFLOW_FLAG
