   2   2   0   0
  0.2044081E+02  0.3866765E-09  0.3866765E-09  0.3866765E-09  0.1500000E-15
  1.000000000000000E-004
  CAR 
 unknown system                          
     13.29853033     -6.27305747  301      5.02137966      1.00000000
     -6.273  0.0000E+00  0.0000E+00
     -6.208  0.0000E+00  0.0000E+00
     -6.143  0.0000E+00  0.0000E+00
     -6.077  0.0000E+00  0.0000E+00
     -6.012  0.0000E+00  0.0000E+00
     -5.947  0.0000E+00  0.0000E+00
     -5.882  0.0000E+00  0.0000E+00
     -5.816  0.0000E+00  0.0000E+00
     -5.751  0.0000E+00  0.0000E+00
     -5.686  0.0000E+00  0.0000E+00
     -5.621  0.0000E+00  0.0000E+00
     -5.555  0.0000E+00  0.0000E+00
     -5.490  0.1685E-12  0.1099E-13
     -5.425  0.1276E-01  0.8323E-03
     -5.360  0.7293E+01  0.4766E+00
     -5.294  0.3581E+00  0.5000E+00
     -5.229  0.1212E-08  0.5000E+00
     -5.164  0.0000E+00  0.5000E+00
     -5.099  0.0000E+00  0.5000E+00
     -5.034  0.0000E+00  0.5000E+00
     -4.968  0.0000E+00  0.5000E+00
     -4.903  0.0000E+00  0.5000E+00
     -4.838  0.0000E+00  0.5000E+00
     -4.773  0.0000E+00  0.5000E+00
     -4.707  0.0000E+00  0.5000E+00
     -4.642  0.0000E+00  0.5000E+00
     -4.577  0.0000E+00  0.5000E+00
     -4.512  0.0000E+00  0.5000E+00
     -4.446  0.0000E+00  0.5000E+00
     -4.381  0.0000E+00  0.5000E+00
     -4.316  0.0000E+00  0.5000E+00
     -4.251  0.0000E+00  0.5000E+00
     -4.185  0.0000E+00  0.5000E+00
     -4.120  0.0000E+00  0.5000E+00
     -4.055  0.0000E+00  0.5000E+00
     -3.990  0.0000E+00  0.5000E+00
     -3.924  0.0000E+00  0.5000E+00
     -3.859  0.0000E+00  0.5000E+00
     -3.794  0.0000E+00  0.5000E+00
     -3.729  0.0000E+00  0.5000E+00
     -3.664  0.0000E+00  0.5000E+00
     -3.598  0.1468E-09  0.5000E+00
     -3.533  0.3554E+00  0.5232E+00
     -3.468  0.2248E+02  0.1989E+01
     -3.403  0.1620E+00  0.2000E+01
     -3.337  0.0000E+00  0.2000E+01
     -3.272  0.0000E+00  0.2000E+01
     -3.207  0.0000E+00  0.2000E+01
     -3.142  0.0000E+00  0.2000E+01
     -3.076  0.0000E+00  0.2000E+01
     -3.011  0.0000E+00  0.2000E+01
     -2.946  0.0000E+00  0.2000E+01
     -2.881  0.0000E+00  0.2000E+01
     -2.815  0.0000E+00  0.2000E+01
     -2.750  0.0000E+00  0.2000E+01
     -2.685  0.0000E+00  0.2000E+01
     -2.620  0.0000E+00  0.2000E+01
     -2.554  0.0000E+00  0.2000E+01
     -2.489  0.0000E+00  0.2000E+01
     -2.424  0.0000E+00  0.2000E+01
     -2.359  0.0000E+00  0.2000E+01
     -2.294  0.0000E+00  0.2000E+01
     -2.228  0.0000E+00  0.2000E+01
     -2.163  0.0000E+00  0.2000E+01
     -2.098  0.0000E+00  0.2000E+01
     -2.033  0.0000E+00  0.2000E+01
     -1.967  0.0000E+00  0.2000E+01
     -1.902  0.0000E+00  0.2000E+01
     -1.837  0.0000E+00  0.2000E+01
     -1.772  0.0000E+00  0.2000E+01
     -1.706  0.0000E+00  0.2000E+01
     -1.641  0.0000E+00  0.2000E+01
     -1.576  0.0000E+00  0.2000E+01
     -1.511  0.0000E+00  0.2000E+01
     -1.445  0.0000E+00  0.2000E+01
     -1.380  0.0000E+00  0.2000E+01
     -1.315  0.0000E+00  0.2000E+01
     -1.250  0.0000E+00  0.2000E+01
     -1.184  0.0000E+00  0.2000E+01
     -1.119  0.0000E+00  0.2000E+01
     -1.054  0.0000E+00  0.2000E+01
     -0.989  0.0000E+00  0.2000E+01
     -0.923  0.0000E+00  0.2000E+01
     -0.858  0.0000E+00  0.2000E+01
     -0.793  0.1276E-14  0.2000E+01
     -0.728  0.2014E-02  0.2000E+01
     -0.663  0.1851E+02  0.3208E+01
     -0.597  0.4476E+01  0.3500E+01
     -0.532  0.5063E-06  0.3500E+01
     -0.467  0.0000E+00  0.3500E+01
     -0.402  0.0000E+00  0.3500E+01
     -0.336  0.0000E+00  0.3500E+01
     -0.271  0.0000E+00  0.3500E+01
     -0.206  0.0000E+00  0.3500E+01
     -0.141  0.0000E+00  0.3500E+01
     -0.075  0.0000E+00  0.3500E+01
     -0.010  0.0000E+00  0.3500E+01
      0.055  0.0000E+00  0.3500E+01
      0.120  0.0000E+00  0.3500E+01
      0.186  0.0000E+00  0.3500E+01
      0.251  0.0000E+00  0.3500E+01
      0.316  0.0000E+00  0.3500E+01
      0.381  0.0000E+00  0.3500E+01
      0.447  0.0000E+00  0.3500E+01
      0.512  0.0000E+00  0.3500E+01
      0.577  0.0000E+00  0.3500E+01
      0.642  0.0000E+00  0.3500E+01
      0.707  0.0000E+00  0.3500E+01
      0.773  0.0000E+00  0.3500E+01
      0.838  0.0000E+00  0.3500E+01
      0.903  0.0000E+00  0.3500E+01
      0.968  0.0000E+00  0.3500E+01
      1.034  0.0000E+00  0.3500E+01
      1.099  0.0000E+00  0.3500E+01
      1.164  0.0000E+00  0.3500E+01
      1.229  0.0000E+00  0.3500E+01
      1.295  0.0000E+00  0.3500E+01
      1.360  0.0000E+00  0.3500E+01
      1.425  0.0000E+00  0.3500E+01
      1.490  0.0000E+00  0.3500E+01
      1.556  0.0000E+00  0.3500E+01
      1.621  0.0000E+00  0.3500E+01
      1.686  0.2868E-06  0.3500E+01
      1.751  0.1700E+01  0.3611E+01
      1.817  0.5964E+01  0.4000E+01
      1.882  0.4583E-03  0.4000E+01
      1.947  0.0000E+00  0.4000E+01
      2.012  0.0000E+00  0.4000E+01
      2.077  0.1581E-11  0.4000E+01
      2.143  0.6142E-01  0.4004E+01
      2.208  0.2215E+02  0.5449E+01
      2.273  0.7775E+00  0.5500E+01
      2.338  0.1369E-08  0.5500E+01
      2.404  0.0000E+00  0.5500E+01
      2.469  0.0000E+00  0.5500E+01
      2.534  0.0000E+00  0.5500E+01
      2.599  0.0000E+00  0.5500E+01
      2.665  0.0000E+00  0.5500E+01
      2.730  0.0000E+00  0.5500E+01
      2.795  0.0000E+00  0.5500E+01
      2.860  0.0000E+00  0.5500E+01
      2.926  0.0000E+00  0.5500E+01
      2.991  0.0000E+00  0.5500E+01
      3.056  0.0000E+00  0.5500E+01
      3.121  0.0000E+00  0.5500E+01
      3.187  0.0000E+00  0.5500E+01
      3.252  0.0000E+00  0.5500E+01
      3.317  0.0000E+00  0.5500E+01
      3.382  0.1491E-11  0.5500E+01
      3.447  0.5995E-01  0.5504E+01
      3.513  0.2214E+02  0.6948E+01
      3.578  0.7912E+00  0.7000E+01
      3.643  0.1442E-08  0.7000E+01
      3.708  0.0000E+00  0.7000E+01
      3.774  0.0000E+00  0.7000E+01
      3.839  0.0000E+00  0.7000E+01
      3.904  0.0000E+00  0.7000E+01
      3.969  0.0000E+00  0.7000E+01
      4.035  0.0000E+00  0.7000E+01
      4.100  0.0000E+00  0.7000E+01
      4.165  0.0000E+00  0.7000E+01
      4.230  0.0000E+00  0.7000E+01
      4.296  0.0000E+00  0.7000E+01
      4.361  0.0000E+00  0.7000E+01
      4.426  0.0000E+00  0.7000E+01
      4.491  0.0000E+00  0.7000E+01
      4.557  0.0000E+00  0.7000E+01
      4.622  0.0000E+00  0.7000E+01
      4.687  0.0000E+00  0.7000E+01
      4.752  0.0000E+00  0.7000E+01
      4.818  0.3497E-08  0.7000E+01
      4.883  0.8059E+00  0.7053E+01
      4.948  0.1450E+02  0.7999E+01
      5.013  0.2120E-01  0.8000E+01
      5.078  0.0000E+00  0.8000E+01
      5.144  0.0000E+00  0.8000E+01
      5.209  0.0000E+00  0.8000E+01
      5.274  0.0000E+00  0.8000E+01
      5.339  0.0000E+00  0.8000E+01
      5.405  0.0000E+00  0.8000E+01
      5.470  0.0000E+00  0.8000E+01
      5.535  0.0000E+00  0.8000E+01
      5.600  0.0000E+00  0.8000E+01
      5.666  0.0000E+00  0.8000E+01
      5.731  0.0000E+00  0.8000E+01
      5.796  0.0000E+00  0.8000E+01
      5.861  0.0000E+00  0.8000E+01
      5.927  0.0000E+00  0.8000E+01
      5.992  0.0000E+00  0.8000E+01
      6.057  0.0000E+00  0.8000E+01
      6.122  0.0000E+00  0.8000E+01
      6.188  0.0000E+00  0.8000E+01
      6.253  0.0000E+00  0.8000E+01
      6.318  0.0000E+00  0.8000E+01
      6.383  0.0000E+00  0.8000E+01
      6.448  0.0000E+00  0.8000E+01
      6.514  0.0000E+00  0.8000E+01
      6.579  0.0000E+00  0.8000E+01
      6.644  0.0000E+00  0.8000E+01
      6.709  0.0000E+00  0.8000E+01
      6.775  0.0000E+00  0.8000E+01
      6.840  0.0000E+00  0.8000E+01
      6.905  0.0000E+00  0.8000E+01
      6.970  0.0000E+00  0.8000E+01
      7.036  0.0000E+00  0.8000E+01
      7.101  0.5725E-07  0.8000E+01
      7.166  0.2494E+01  0.8163E+01
      7.231  0.2049E+02  0.9499E+01
      7.297  0.8385E-02  0.9500E+01
      7.362  0.0000E+00  0.9500E+01
      7.427  0.0000E+00  0.9500E+01
      7.492  0.1276E-14  0.9500E+01
      7.558  0.1399E-02  0.9500E+01
      7.623  0.6535E+01  0.9926E+01
      7.688  0.1128E+01  0.1000E+02
      7.753  0.5736E-07  0.1000E+02
      7.818  0.0000E+00  0.1000E+02
      7.884  0.0000E+00  0.1000E+02
      7.949  0.0000E+00  0.1000E+02
      8.014  0.0000E+00  0.1000E+02
      8.079  0.0000E+00  0.1000E+02
      8.145  0.0000E+00  0.1000E+02
      8.210  0.0000E+00  0.1000E+02
      8.275  0.0000E+00  0.1000E+02
      8.340  0.0000E+00  0.1000E+02
      8.406  0.0000E+00  0.1000E+02
      8.471  0.0000E+00  0.1000E+02
      8.536  0.0000E+00  0.1000E+02
      8.601  0.0000E+00  0.1000E+02
      8.667  0.0000E+00  0.1000E+02
      8.732  0.0000E+00  0.1000E+02
      8.797  0.0000E+00  0.1000E+02
      8.862  0.0000E+00  0.1000E+02
      8.928  0.0000E+00  0.1000E+02
      8.993  0.0000E+00  0.1000E+02
      9.058  0.2134E-05  0.1000E+02
      9.123  0.4599E+01  0.1030E+02
      9.188  0.1073E+02  0.1100E+02
      9.254  0.3325E-03  0.1100E+02
      9.319  0.0000E+00  0.1100E+02
      9.384  0.0000E+00  0.1100E+02
      9.449  0.0000E+00  0.1100E+02
      9.515  0.0000E+00  0.1100E+02
      9.580  0.0000E+00  0.1100E+02
      9.645  0.0000E+00  0.1100E+02
      9.710  0.0000E+00  0.1100E+02
      9.776  0.0000E+00  0.1100E+02
      9.841  0.0000E+00  0.1100E+02
      9.906  0.0000E+00  0.1100E+02
      9.971  0.7824E-12  0.1100E+02
     10.037  0.4593E-01  0.1100E+02
     10.102  0.2199E+02  0.1244E+02
     10.167  0.9522E+00  0.1250E+02
     10.232  0.2514E-08  0.1250E+02
     10.298  0.0000E+00  0.1250E+02
     10.363  0.0000E+00  0.1250E+02
     10.428  0.0000E+00  0.1250E+02
     10.493  0.0000E+00  0.1250E+02
     10.559  0.0000E+00  0.1250E+02
     10.624  0.0000E+00  0.1250E+02
     10.689  0.0000E+00  0.1250E+02
     10.754  0.0000E+00  0.1250E+02
     10.819  0.0000E+00  0.1250E+02
     10.885  0.0000E+00  0.1250E+02
     10.950  0.0000E+00  0.1250E+02
     11.015  0.0000E+00  0.1250E+02
     11.080  0.0000E+00  0.1250E+02
     11.146  0.0000E+00  0.1250E+02
     11.211  0.1821E-07  0.1250E+02
     11.276  0.1781E+01  0.1262E+02
     11.341  0.2120E+02  0.1400E+02
     11.407  0.1632E-01  0.1400E+02
     11.472  0.8685E-02  0.1400E+02
     11.537  0.2053E+02  0.1534E+02
     11.602  0.2453E+01  0.1550E+02
     11.668  0.5401E-07  0.1550E+02
     11.733  0.0000E+00  0.1550E+02
     11.798  0.0000E+00  0.1550E+02
     11.863  0.0000E+00  0.1550E+02
     11.929  0.0000E+00  0.1550E+02
     11.994  0.0000E+00  0.1550E+02
     12.059  0.0000E+00  0.1550E+02
     12.124  0.0000E+00  0.1550E+02
     12.189  0.0000E+00  0.1550E+02
     12.255  0.0000E+00  0.1550E+02
     12.320  0.1212E-08  0.1550E+02
     12.385  0.3581E+00  0.1552E+02
     12.450  0.7293E+01  0.1600E+02
     12.516  0.1276E-01  0.1600E+02
     12.581  0.0000E+00  0.1600E+02
     12.646  0.0000E+00  0.1600E+02
     12.711  0.0000E+00  0.1600E+02
     12.777  0.0000E+00  0.1600E+02
     12.842  0.0000E+00  0.1600E+02
     12.907  0.0000E+00  0.1600E+02
     12.972  0.0000E+00  0.1600E+02
     13.038  0.0000E+00  0.1600E+02
     13.103  0.0000E+00  0.1600E+02
     13.168  0.0000E+00  0.1600E+02
     13.233  0.0000E+00  0.1600E+02
     13.299  0.0000E+00  0.1600E+02
