    2    2    1    1
  0.2044081E+02  0.3866764E-09  0.3866764E-09  0.3866764E-09  0.1500000E-15
  1.000000000000000E-004
  CAR 
 unknown system                          
      8      2      8
 
  0.2500000E+00  0.2500000E+00  0.2500000E+00  0.2500000E+00
    1       -5.383440   1.000000
    2        1.762128   1.000000
    3        4.905663   1.000000
    4        4.905663   1.000000
    5        7.607937   0.000000
    6        9.130674   0.000000
    7        9.130674   0.000000
    8       12.408913   0.000000
 
 -0.2500000E+00  0.2500000E+00  0.2500000E+00  0.7500000E+00
    1       -3.502515   1.000000
    2       -0.674709   1.000000
    3        2.182120   1.000000
    4        3.487004   1.000000
    5        7.183562   0.000000
    6       10.077308   0.000000
    7       11.296250   0.000000
    8       11.519488   0.000000
