Automatically generated mesh
       2
Reciprocal lattice
    0.25000000000000    0.25000000000000    0.25000000000000            96
   -0.25000000000000    0.25000000000000    0.25000000000000           288
