       N       E                     dE             d eps       ncg     rms          rms(c)
RMM:   1     0.338197862264E+02    0.33820E+02   -0.14815E+03    16   0.487E+02
RMM:   2     0.325266732011E+01   -0.30567E+02   -0.29377E+02    16   0.107E+02
RMM:   3    -0.861746739984E+01   -0.11870E+02   -0.78632E+01    16   0.416E+01
RMM:   4    -0.104371130739E+02   -0.18196E+01   -0.12744E+01    16   0.216E+01
RMM:   5    -0.107741159425E+02   -0.33700E+00   -0.25618E+00    16   0.999E+00
RMM:   6    -0.108513928277E+02   -0.77277E-01   -0.62156E-01    16   0.504E+00
RMM:   7    -0.108735363270E+02   -0.22143E-01   -0.19370E-01    41   0.252E+00
RMM:   8    -0.108755482700E+02   -0.20119E-02   -0.14391E-02    39   0.716E-01
RMM:   9    -0.108756345295E+02   -0.86259E-04   -0.80275E-04    40   0.159E-01    0.482E+00
RMM:  10    -0.107470609094E+02    0.12857E+00   -0.54125E-02    34   0.140E+00    0.296E+00
RMM:  11    -0.106883736701E+02    0.58687E-01   -0.11748E-01    33   0.217E+00    0.183E-01
RMM:  12    -0.106898171741E+02   -0.14435E-02   -0.22249E-03    37   0.352E-01    0.771E-02
RMM:  13    -0.106900829505E+02   -0.26578E-03   -0.33675E-04    34   0.142E-01    0.560E-02
RMM:  14    -0.106901147663E+02   -0.31816E-04   -0.55726E-05    35   0.589E-02    0.428E-03
RMM:  15    -0.106901147558E+02    0.10444E-07   -0.38540E-06    35   0.158E-02
   1 F= -.10690115E+02 E0= -.10690115E+02  d E =-.163369E-16
