 vasp.5.4.4.18Apr17-6-g9f103f2a35 (build Mar 10 2023 13:05:35) complex          
  
 executed on             LinuxIFC date 2023.03.27  12:05:38
 running on   16 total cores
 distrk:  each k-point on   16 cores,    1 groups
 distr:  one band on NCORES_PER_BAND=   4 cores,    4 groups


--------------------------------------------------------------------------------------------------------


 INCAR:
 POTCAR:    PAW_PBE Si 05Jan2001                  
 POTCAR:    PAW_PBE Si 05Jan2001                  
   VRHFIN =Si: s2p2                                                             
   LEXCH  = PE                                                                  
   EATOM  =   103.0669 eV,    7.5752 Ry                                         
                                                                                
   TITEL  = PAW_PBE Si 05Jan2001                                                
   LULTRA =        F    use ultrasoft PP ?                                      
   IUNSCR =        1    unscreen: 0-lin 1-nonlin 2-no                           
   RPACOR =    1.500    partial core radius                                     
   POMASS =   28.085; ZVAL   =    4.000    mass and valenz                      
   RCORE  =    1.900    outmost cutoff radius                                   
   RWIGS  =    2.480; RWIGS  =    1.312    wigner-seitz radius (au A)           
   ENMAX  =  245.345; ENMIN  =  184.009 eV                                      
   ICORE  =        2    local potential                                         
   LCOR   =        T    correct aug charges                                     
   LPAW   =        T    paw PP                                                  
   EAUG   =  322.069                                                            
   DEXC   =    0.000                                                            
   RMAX   =    1.950    core radius for proj-oper                               
   RAUG   =    1.300    factor for augmentation sphere                          
   RDEP   =    1.993    radius for radial grids                                 
   RDEPT  =    1.837    core radius for aug-charge                              
                                                                                
   Atomic configuration                                                         
    6 entries                                                                   
     n  l   j            E        occ.                                          
     1  0  0.50     -1785.8828   2.0000                                         
     2  0  0.50      -139.4969   2.0000                                         
     2  1  1.50       -95.5546   6.0000                                         
     3  0  0.50       -10.8127   2.0000                                         
     3  1  0.50        -4.0811   2.0000                                         
     3  2  1.50        -4.0817   0.0000                                         
   Description                                                                  
     l       E           TYP  RCUT    TYP  RCUT                                 
     0    -10.8127223     23  1.900                                             
     0     -7.6451159     23  1.900                                             
     1     -4.0811372     23  1.900                                             
     1      2.4879257     23  1.900                                             
     2     -4.0817478      7  1.900                                             
  local pseudopotential read in
  partial core-charges read in
  partial kinetic energy density read in
  atomic valenz-charges read in
  non local Contribution for L=           0  read in
    real space projection operators read in
  non local Contribution for L=           0  read in
    real space projection operators read in
  non local Contribution for L=           1  read in
    real space projection operators read in
  non local Contribution for L=           1  read in
    real space projection operators read in
    PAW grid and wavefunctions read in
 
   number of l-projection  operators is LMAX  =           4
   number of lm-projection operators is LMMAX =           8
 

 ----------------------------------------------------------------------------- 
|                                                                             |
|  ADVICE TO THIS USER RUNNING 'VASP/VAMP'   (HEAR YOUR MASTER'S VOICE ...):  |
|                                                                             |
|      You have a (more or less) 'small supercell' and for smaller cells      |
|      it is recommended  to use the reciprocal-space projection scheme!      |
|      The real space optimization is not  efficient for small cells and it   |
|      is also less accurate ...                                              |
|      Therefore set LREAL=.FALSE. in the  INCAR file                         |
|                                                                             |
 ----------------------------------------------------------------------------- 

 Optimization of the real space projectors (new method)

 maximal supplied QI-value         = 19.84
 optimisation between [QCUT,QGAM] = [ 10.12, 20.44] = [ 28.68,116.96] Ry 
 Optimized for a Real-space Cutoff    1.38 Angstroem

   l    n(q)    QCUT    max X(q) W(low)/X(q) W(high)/X(q)  e(spline) 
   0      8    10.119   159.560    0.58E-04    0.11E-03    0.54E-07
   0      8    10.119   115.863    0.56E-04    0.11E-03    0.54E-07
   1      8    10.119    88.339    0.22E-03    0.17E-03    0.19E-06
   1      8    10.119    48.592    0.22E-03    0.17E-03    0.18E-06
  PAW_PBE Si 05Jan2001                  :
 energy of atom  1       EATOM= -103.0669
 kinetic energy error for atom=    0.0012 (will be added to EATOM!!)
 
 
 POSCAR: Si                                      
  positions in cartesian coordinates
  No initial velocities read in
 exchange correlation table for  LEXCH =        8
   RHO(1)=    0.500       N(1)  =     2000
   RHO(2)=  100.500       N(2)  =     4000
 


--------------------------------------------------------------------------------------------------------


 ion  position               nearest neighbor table
   1  0.000  0.000  0.000-   2 2.37   2 2.37   2 2.37   2 2.37
   2  0.250  0.250  0.250-   1 2.37   1 2.37   1 2.37   1 2.37
 
  LATTYP: Found a face centered cubic cell.
 ALAT       =     5.4684307930
  
  Lattice vectors:
  
 A1 = (   0.0000000000,   2.7342153965,   2.7342153965)
 A2 = (   2.7342153965,   0.0000000000,   2.7342153965)
 A3 = (   2.7342153965,   2.7342153965,   0.0000000000)


Analysis of symmetry for initial positions (statically):
=====================================================================
 Subroutine PRICEL returns:
 Original cell was already a primitive cell.
 

 Routine SETGRP: Setting up the symmetry group for a 
 face centered cubic supercell.


 Subroutine GETGRP returns: Found 48 space group operations
 (whereof 24 operations were pure point group operations)
 out of a pool of 48 trial point group operations.


The static configuration has the point symmetry T_d .
 The point group associated with its full space group is O_h .


Analysis of symmetry for dynamics (positions and initial velocities):
=====================================================================
 Subroutine PRICEL returns:
 Original cell was already a primitive cell.
 

 Routine SETGRP: Setting up the symmetry group for a 
 face centered cubic supercell.


 Subroutine GETGRP returns: Found 48 space group operations
 (whereof 24 operations were pure point group operations)
 out of a pool of 48 trial point group operations.


The dynamic configuration has the point symmetry T_d .
 The point group associated with its full space group is O_h .


 Subroutine INISYM returns: Found 48 space group operations
 (whereof 24 operations are pure point group operations),
 and found     1 'primitive' translations

 
 
 KPOINTS: KPOINTS created by Atomic Simulation Env

Automatic generation of k-mesh.
Space group operators:
 irot       det(A)        alpha          n_x          n_y          n_z        tau_x        tau_y        tau_z
    1     1.000000     0.000000     1.000000     0.000000     0.000000     0.000000     0.000000     0.000000
    2     1.000000   120.000000    -0.577350    -0.577350    -0.577350     0.000000     0.000000     0.000000
    3     1.000000   120.000000     0.577350     0.577350     0.577350     0.000000     0.000000     0.000000
    4    -1.000000    90.000000     0.000000     0.000000    -1.000000     0.000000     0.000000     0.000000
    5    -1.000000   180.000000     0.000000     0.707107     0.707107     0.000000     0.000000     0.000000
    6    -1.000000    90.000000     0.000000     1.000000     0.000000     0.000000     0.000000     0.000000
    7     1.000000   180.000000     0.000000     0.000000     1.000000     0.000000     0.000000     0.000000
    8     1.000000   120.000000    -0.577350     0.577350     0.577350     0.000000     0.000000     0.000000
    9     1.000000   120.000000    -0.577350     0.577350    -0.577350     0.000000     0.000000     0.000000
   10    -1.000000    90.000000     0.000000     0.000000     1.000000     0.000000     0.000000     0.000000
   11    -1.000000    90.000000    -1.000000     0.000000     0.000000     0.000000     0.000000     0.000000
   12    -1.000000   180.000000     0.707107     0.000000     0.707107     0.000000     0.000000     0.000000
   13     1.000000   120.000000     0.577350    -0.577350     0.577350     0.000000     0.000000     0.000000
   14     1.000000   120.000000    -0.577350    -0.577350     0.577350     0.000000     0.000000     0.000000
   15     1.000000   180.000000     1.000000     0.000000     0.000000     0.000000     0.000000     0.000000
   16    -1.000000    90.000000     0.000000    -1.000000     0.000000     0.000000     0.000000     0.000000
   17    -1.000000   180.000000     0.707107     0.707107     0.000000     0.000000     0.000000     0.000000
   18    -1.000000    90.000000     1.000000     0.000000     0.000000     0.000000     0.000000     0.000000
   19     1.000000   120.000000     0.577350    -0.577350    -0.577350     0.000000     0.000000     0.000000
   20     1.000000   180.000000     0.000000     1.000000     0.000000     0.000000     0.000000     0.000000
   21     1.000000   120.000000     0.577350     0.577350    -0.577350     0.000000     0.000000     0.000000
   22    -1.000000   180.000000     0.000000    -0.707107     0.707107     0.000000     0.000000     0.000000
   23    -1.000000   180.000000     0.707107    -0.707107     0.000000     0.000000     0.000000     0.000000
   24    -1.000000   180.000000     0.707107     0.000000    -0.707107     0.000000     0.000000     0.000000
   25    -1.000000     0.000000     1.000000     0.000000     0.000000     0.250000     0.250000     0.250000
   26    -1.000000   120.000000    -0.577350    -0.577350    -0.577350     0.250000     0.250000     0.250000
   27    -1.000000   120.000000     0.577350     0.577350     0.577350     0.250000     0.250000     0.250000
   28     1.000000    90.000000     0.000000     0.000000    -1.000000     0.250000     0.250000     0.250000
   29     1.000000   180.000000     0.000000     0.707107     0.707107     0.250000     0.250000     0.250000
   30     1.000000    90.000000     0.000000     1.000000     0.000000     0.250000     0.250000     0.250000
   31    -1.000000   180.000000     0.000000     0.000000     1.000000     0.250000     0.250000     0.250000
   32    -1.000000   120.000000    -0.577350     0.577350     0.577350     0.250000     0.250000     0.250000
   33    -1.000000   120.000000    -0.577350     0.577350    -0.577350     0.250000     0.250000     0.250000
   34     1.000000    90.000000     0.000000     0.000000     1.000000     0.250000     0.250000     0.250000
   35     1.000000    90.000000    -1.000000     0.000000     0.000000     0.250000     0.250000     0.250000
   36     1.000000   180.000000     0.707107     0.000000     0.707107     0.250000     0.250000     0.250000
   37    -1.000000   120.000000     0.577350    -0.577350     0.577350     0.250000     0.250000     0.250000
   38    -1.000000   120.000000    -0.577350    -0.577350     0.577350     0.250000     0.250000     0.250000
   39    -1.000000   180.000000     1.000000     0.000000     0.000000     0.250000     0.250000     0.250000
   40     1.000000    90.000000     0.000000    -1.000000     0.000000     0.250000     0.250000     0.250000
   41     1.000000   180.000000     0.707107     0.707107     0.000000     0.250000     0.250000     0.250000
   42     1.000000    90.000000     1.000000     0.000000     0.000000     0.250000     0.250000     0.250000
   43    -1.000000   120.000000     0.577350    -0.577350    -0.577350     0.250000     0.250000     0.250000
   44    -1.000000   180.000000     0.000000     1.000000     0.000000     0.250000     0.250000     0.250000
   45    -1.000000   120.000000     0.577350     0.577350    -0.577350     0.250000     0.250000     0.250000
   46     1.000000   180.000000     0.000000    -0.707107     0.707107     0.250000     0.250000     0.250000
   47     1.000000   180.000000     0.707107    -0.707107     0.000000     0.250000     0.250000     0.250000
   48     1.000000   180.000000     0.707107     0.000000    -0.707107     0.250000     0.250000     0.250000
 
 Subroutine IBZKPT returns following result:
 ===========================================
 
 Found      2 irreducible k-points:
 
 Following reciprocal coordinates:
            Coordinates               Weight
  0.250000  0.250000  0.250000     96.000000
 -0.250000  0.250000  0.250000    288.000000
 
 Following cartesian coordinates:
            Coordinates               Weight
  0.045717  0.045717  0.045717     96.000000
  0.137151 -0.045717 -0.045717    288.000000
 


--------------------------------------------------------------------------------------------------------




 Dimension of arrays:
   k-points           NKPTS =      2   k-points in BZ     NKDIM =      2   number of bands    NBANDS=      8
   number of dos      NEDOS =    301   number of ions     NIONS =      2
   non local maximal  LDIM  =      4   non local SUM 2l+1 LMDIM =      8
   total plane-waves  NPLWV =  21952
   max r-space proj   IRMAX =   5968   max aug-charges    IRDMAX=  18151
   dimension x,y,z NGX =    28 NGY =   28 NGZ =   28
   dimension x,y,z NGXF=    56 NGYF=   56 NGZF=   56
   support grid    NGXF=    56 NGYF=   56 NGZF=   56
   ions per type =               2
   NGX,Y,Z   is equivalent  to a cutoff of  12.04, 12.04, 12.04 a.u.
   NGXF,Y,Z  is equivalent  to a cutoff of  24.08, 24.08, 24.08 a.u.

 SYSTEM =  unknown system                          
 POSCAR =  Si                                      

 Startparameter for this run:
   NWRITE =      2    write-flag & timer
   PREC   = accura    normal or accurate (medium, high low for compatibility)
   ISTART =      0    job   : 0-new  1-cont  2-samecut
   ICHARG =      2    charge: 1-file 2-atom 10-const
   ISPIN  =      1    spin polarized calculation?
   LNONCOLLINEAR =      F non collinear calculations
   LSORBIT =      F    spin-orbit coupling
   INIWAV =      1    electr: 0-lowe 1-rand  2-diag
   LASPH  =      F    aspherical Exc in radial PAW
   METAGGA=      F    non-selfconsistent MetaGGA calc.

 Electronic Relaxation 1
   ENCUT  =  400.0 eV  29.40 Ry    5.42 a.u.   6.31  6.31  6.31*2*pi/ulx,y,z
   ENINI  =  400.0     initial cutoff
   ENAUG  =  322.1 eV  augmentation charge cutoff
   NELM   =    500;   NELMIN=  6; NELMDL= -9     # of ELM steps 
   EDIFF  = 0.1E-05   stopping-criterion for ELM
   LREAL  =      T    real-space projection
   NLSPLINE    = F    spline interpolate recip. space projectors
   LCOMPAT=      F    compatible to vasp.4.4
   GGA_COMPAT  = T    GGA compatible to vasp.4.4-vasp.4.6
   LMAXPAW     = -100 max onsite density
   LMAXMIX     =    2 max onsite mixed and CHGCAR
   VOSKOWN=      0    Vosko Wilk Nusair interpolation
   ROPT   =   -0.00025
 Ionic relaxation
   EDIFFG = -.1E-01   stopping-criterion for IOM
   NSW    =      0    number of steps for IOM
   NBLOCK =      1;   KBLOCK =      1    inner block; outer block 
   IBRION =     -1    ionic relax: 0-MD 1-quasi-New 2-CG
   NFREE  =      0    steps in history (QN), initial steepest desc. (CG)
   ISIF   =      3    stress and relaxation
   IWAVPR =     10    prediction:  0-non 1-charg 2-wave 3-comb
   ISYM   =      2    0-nonsym 1-usesym 2-fastsym
   LCORR  =      T    Harris-Foulkes like correction to forces

   POTIM  = 0.1500    time-step for ionic-motion
   TEIN   =    0.0    initial temperature
   TEBEG  =    0.0;   TEEND  =   0.0 temperature during run
   SMASS  =  -3.00    Nose mass-parameter (am)
   estimated Nose-frequenzy (Omega)   =  0.10E-29 period in steps =****** mass=  -0.342E-27a.u.
   SCALEE = 1.0000    scale energy and forces
   NPACO  =    256;   APACO  = 16.0  distance and # of slots for P.C.
   PSTRESS=    0.0 pullay stress

  Mass of Ions in am
   POMASS =  28.09
  Ionic Valenz
   ZVAL   =   4.00
  Atomic Wigner-Seitz radii
   RWIGS  =  -1.00
  virtual crystal weights 
   VCA    =   1.00
   NELECT =       8.0000    total number of electrons
   NUPDOWN=      -1.0000    fix difference up-down

 DOS related values:
   EMIN   =  10.00;   EMAX   =-10.00  energy-range for DOS
   EFERMI =   0.00
   ISMEAR =     0;   SIGMA  =   0.02  broadening in eV -4-tet -1-fermi 0-gaus

 Electronic relaxation 2 (details)
   IALGO  =     48    algorithm
   LDIAG  =      T    sub-space diagonalisation (order eigenvalues)
   LSUBROT=      F    optimize rotation matrix (better conditioning)
   TURBO    =      0    0=normal 1=particle mesh
   IRESTART =      0    0=no restart 2=restart with 2 vectors
   NREBOOT  =      0    no. of reboots
   NMIN     =      0    reboot dimension
   EREF     =   0.00    reference energy to select bands
   IMIX   =      4    mixing-type and parameters
     AMIX     =   0.40;   BMIX     =  1.00
     AMIX_MAG =   1.60;   BMIX_MAG =  1.00
     AMIN     =   0.10
     WC   =   100.;   INIMIX=   1;  MIXPRE=   1;  MAXMIX= -45

 Intra band minimization:
   WEIMIN = 0.0000     energy-eigenvalue tresh-hold
   EBREAK =  0.31E-07  absolut break condition
   DEPER  =   0.30     relativ break condition  

   TIME   =   0.40     timestep for ELM

  volume/ion in A,a.u.               =      20.44       137.94
  Fermi-wavevector in a.u.,A,eV,Ry     =   0.950449  1.796088 12.290865  0.903353
  Thomas-Fermi vector in A             =   2.078827
 
 Write flags
   LWAVE        =      F    write WAVECAR
   LDOWNSAMPLE  =      F    k-point downsampling of WAVECAR
   LCHARG       =      F    write CHGCAR
   LVTOT        =      F    write LOCPOT, total local potential
   LVHAR        =      F    write LOCPOT, Hartree potential only
   LELF         =      F    write electronic localiz. function (ELF)
   LORBIT       =      0    0 simple, 1 ext, 2 COOP (PROOUT), +10 PAW based schemes


 Dipole corrections
   LMONO  =      F    monopole corrections only (constant potential shift)
   LDIPOL =      F    correct potential (dipole corrections)
   IDIPOL =      0    1-x, 2-y, 3-z, 4-all directions 
   EPSILON=  1.0000000 bulk dielectric constant

 Exchange correlation treatment:
   GGA     =    PE    GGA type
   LEXCH   =     8    internal setting for exchange type
   VOSKOWN=      0    Vosko Wilk Nusair interpolation
   LHFCALC =     F    Hartree Fock is set to
   LHFONE  =     F    Hartree Fock one center treatment
   AEXX    =    0.0000 exact exchange contribution

 Linear response parameters
   LEPSILON=     F    determine dielectric tensor
   LRPA    =     F    only Hartree local field effects (RPA)
   LNABLA  =     F    use nabla operator in PAW spheres
   LVEL    =     F    velocity operator in full k-point grid
   LINTERFAST=   F  fast interpolation
   KINTER  =     0    interpolate to denser k-point grid
   CSHIFT  =0.1000    complex shift for real part using Kramers Kronig
   OMEGAMAX=  -1.0    maximum frequency
   DEG_THRESHOLD= 0.2000000E-02 threshold for treating states as degnerate
   RTIME   =   -0.100 relaxation time in fs
  (WPLASMAI=    0.000 imaginary part of plasma frequency in eV, 0.658/RTIME)
   DFIELD  = 0.0000000 0.0000000 0.0000000 field for delta impulse in time
 
 Orbital magnetization related:
   ORBITALMAG=     F  switch on orbital magnetization
   LCHIMAG   =     F  perturbation theory with respect to B field
   DQ        =  0.001000  dq finite difference perturbation B field
   LLRAUG    =     F  two centre corrections for induced B field



--------------------------------------------------------------------------------------------------------


 Static calculation
 charge density and potential will be updated during run
 non-spin polarized calculation
 RMM-DIIS sequential band-by-band
 perform sub-space diagonalisation
    before iterative eigenvector-optimisation
 modified Broyden-mixing scheme, WC =      100.0
 initial mixing is a Kerker type mixing with AMIX =  0.4000 and BMIX =      1.0000
 Hartree-type preconditioning will be used
 using additional bands            4
 real space projection scheme for non local part
 use partial core corrections
 calculate Harris-corrections to forces 
   (improved forces if not selfconsistent)
 use gradient corrections 
 use of overlap-Matrix (Vanderbilt PP)
 Gauss-broadening in eV      SIGMA  =   0.02


--------------------------------------------------------------------------------------------------------


  energy-cutoff  :      400.00
  volume of cell :       40.88
      direct lattice vectors                 reciprocal lattice vectors
     0.000000000  2.734215396  2.734215396    -0.182867817  0.182867817  0.182867817
     2.734215396  0.000000000  2.734215396     0.182867817 -0.182867817  0.182867817
     2.734215396  2.734215396  0.000000000     0.182867817  0.182867817 -0.182867817

  length of vectors
     3.866764496  3.866764496  3.866764496     0.316736350  0.316736350  0.316736350


 
 k-points in units of 2pi/SCALE and weight: KPOINTS created by Atomic Simulation Env
   0.04571695  0.04571695  0.04571695       0.250
   0.13715086 -0.04571695 -0.04571695       0.750
 
 k-points in reciprocal lattice and weights: KPOINTS created by Atomic Simulation Env
   0.25000000  0.25000000  0.25000000       0.250
  -0.25000000  0.25000000  0.25000000       0.750
 
 position of ions in fractional coordinates (direct lattice) 
   0.00000000  0.00000000  0.00000000
   0.25000000  0.25000000  0.25000000
 
 position of ions in cartesian coordinates  (Angst):
   0.00000000  0.00000000  0.00000000
   1.36710770  1.36710770  1.36710770
 


--------------------------------------------------------------------------------------------------------


 k-point  1 :   0.2500 0.2500 0.2500  plane waves:     751
 k-point  2 :  -0.2500 0.2500 0.2500  plane waves:     739

 maximum and minimum number of plane-waves per node :       193      183

 maximum number of plane-waves:       751
 maximum index in each direction: 
   IXMAX=    6   IYMAX=    6   IZMAX=    6
   IXMIN=   -6   IYMIN=   -6   IZMIN=   -6


 real space projection operators:
  total allocation   :        715.12 KBytes
  max/ min on nodes  :        179.88        177.69


 parallel 3D FFT for wavefunctions:
    minimum data exchange during FFTs selected (reduces bandwidth)
 parallel 3D FFT for charge:
    minimum data exchange during FFTs selected (reduces bandwidth)


 total amount of memory used by VASP MPI-rank0    31857. kBytes
=======================================================================

   base      :      30000. kBytes
   nonlr-proj:        419. kBytes
   fftplans  :        584. kBytes
   grid      :        839. kBytes
   one-center:          3. kBytes
   wavefun   :         12. kBytes
 
     INWAV:  cpu time    0.0000: real time    0.0000
 Broyden mixing: mesh for mixing (old mesh)
   NGX = 13   NGY = 13   NGZ = 13
  (NGX  = 56   NGY  = 56   NGZ  = 56)
  gives a total of   2197 points

 initial charge density was supplied:
 charge density of overlapping atoms calculated
 number of electron       8.0000000 magnetization 
 keeping initial charge density in first step


--------------------------------------------------------------------------------------------------------


 Maximum index for non-local projection operator         1430
 Maximum index for augmentation-charges         1471 (set IRDMAX)


--------------------------------------------------------------------------------------------------------


 First call to EWALD:  gamma=   0.515
 Maximum number of real-space cells 3x 3x 3
 Maximum number of reciprocal cells 3x 3x 3

    FEWALD:  cpu time    0.0012: real time    0.0012


--------------------------------------- Iteration      1(   1)  ---------------------------------------


    POTLOK:  cpu time    0.0068: real time    0.0085
    SETDIJ:  cpu time    0.0012: real time    0.0012
    EDDIAG:  cpu time    0.0042: real time    0.0044
  RMM-DIIS:  cpu time    0.0017: real time    0.0017
    ORTHCH:  cpu time    0.0002: real time    0.0002
       DOS:  cpu time    0.0001: real time    0.0001
    --------------------------------------------
      LOOP:  cpu time    0.0142: real time    0.0160

 eigenvalue-minimisations  :    16
 total energy-change (2. order) : 0.3381979E+02  (-0.1481546E+03)
 number of electron       8.0000000 magnetization 
 augmentation part        8.0000000 magnetization 

 Free energy of the ion-electron system (eV)
  ---------------------------------------------------
  alpha Z        PSCENC =         3.29371734
  Ewald energy   TEWEN  =      -226.95723643
  -Hartree energ DENC   =       -11.32090663
  -exchange      EXHF   =         0.00000000
  -V(xc)+E(xc)   XCENC  =       -18.68454667
  PAW double counting   =       176.24759923     -141.06103558
  entropy T*S    EENTRO =        -0.00000000
  eigenvalues    EBANDS =        46.17070250
  atomic energy  EATOM  =       206.13149246
  Solvation  Ediel_sol  =         0.00000000
  ---------------------------------------------------
  free energy    TOTEN  =        33.81978623 eV

  energy without entropy =       33.81978623  energy(sigma->0) =       33.81978623


--------------------------------------------------------------------------------------------------------




--------------------------------------- Iteration      1(   2)  ---------------------------------------


    EDDIAG:  cpu time    0.0022: real time    0.0036
  RMM-DIIS:  cpu time    0.0013: real time    0.0013
    ORTHCH:  cpu time    0.0002: real time    0.0001
       DOS:  cpu time    0.0000: real time    0.0000
    --------------------------------------------
      LOOP:  cpu time    0.0037: real time    0.0051

 eigenvalue-minimisations  :    16
 total energy-change (2. order) :-0.3056712E+02  (-0.2937704E+02)
 number of electron       8.0000000 magnetization 
 augmentation part        8.0000000 magnetization 

 Free energy of the ion-electron system (eV)
  ---------------------------------------------------
  alpha Z        PSCENC =         3.29371734
  Ewald energy   TEWEN  =      -226.95723643
  -Hartree energ DENC   =       -11.32090663
  -exchange      EXHF   =         0.00000000
  -V(xc)+E(xc)   XCENC  =       -18.68454667
  PAW double counting   =       176.24759923     -141.06103558
  entropy T*S    EENTRO =        -0.00000000
  eigenvalues    EBANDS =        15.60358359
  atomic energy  EATOM  =       206.13149246
  Solvation  Ediel_sol  =         0.00000000
  ---------------------------------------------------
  free energy    TOTEN  =         3.25266732 eV

  energy without entropy =        3.25266732  energy(sigma->0) =        3.25266732


--------------------------------------------------------------------------------------------------------




--------------------------------------- Iteration      1(   3)  ---------------------------------------


    EDDIAG:  cpu time    0.0017: real time    0.0030
  RMM-DIIS:  cpu time    0.0013: real time    0.0013
    ORTHCH:  cpu time    0.0001: real time    0.0001
       DOS:  cpu time    0.0000: real time    0.0000
    --------------------------------------------
      LOOP:  cpu time    0.0032: real time    0.0045

 eigenvalue-minimisations  :    16
 total energy-change (2. order) :-0.1187013E+02  (-0.7863224E+01)
 number of electron       8.0000000 magnetization 
 augmentation part        8.0000000 magnetization 

 Free energy of the ion-electron system (eV)
  ---------------------------------------------------
  alpha Z        PSCENC =         3.29371734
  Ewald energy   TEWEN  =      -226.95723643
  -Hartree energ DENC   =       -11.32090663
  -exchange      EXHF   =         0.00000000
  -V(xc)+E(xc)   XCENC  =       -18.68454667
  PAW double counting   =       176.24759923     -141.06103558
  entropy T*S    EENTRO =        -0.00000000
  eigenvalues    EBANDS =         3.73344887
  atomic energy  EATOM  =       206.13149246
  Solvation  Ediel_sol  =         0.00000000
  ---------------------------------------------------
  free energy    TOTEN  =        -8.61746740 eV

  energy without entropy =       -8.61746740  energy(sigma->0) =       -8.61746740


--------------------------------------------------------------------------------------------------------




--------------------------------------- Iteration      1(   4)  ---------------------------------------


    EDDIAG:  cpu time    0.0017: real time    0.0030
  RMM-DIIS:  cpu time    0.0013: real time    0.0013
    ORTHCH:  cpu time    0.0001: real time    0.0001
       DOS:  cpu time    0.0000: real time    0.0000
    --------------------------------------------
      LOOP:  cpu time    0.0032: real time    0.0045

 eigenvalue-minimisations  :    16
 total energy-change (2. order) :-0.1819646E+01  (-0.1274366E+01)
 number of electron       8.0000000 magnetization 
 augmentation part        8.0000000 magnetization 

 Free energy of the ion-electron system (eV)
  ---------------------------------------------------
  alpha Z        PSCENC =         3.29371734
  Ewald energy   TEWEN  =      -226.95723643
  -Hartree energ DENC   =       -11.32090663
  -exchange      EXHF   =         0.00000000
  -V(xc)+E(xc)   XCENC  =       -18.68454667
  PAW double counting   =       176.24759923     -141.06103558
  entropy T*S    EENTRO =        -0.00000000
  eigenvalues    EBANDS =         1.91380320
  atomic energy  EATOM  =       206.13149246
  Solvation  Ediel_sol  =         0.00000000
  ---------------------------------------------------
  free energy    TOTEN  =       -10.43711307 eV

  energy without entropy =      -10.43711307  energy(sigma->0) =      -10.43711307


--------------------------------------------------------------------------------------------------------




--------------------------------------- Iteration      1(   5)  ---------------------------------------


    EDDIAG:  cpu time    0.0016: real time    0.0033
  RMM-DIIS:  cpu time    0.0013: real time    0.0013
    ORTHCH:  cpu time    0.0001: real time    0.0001
       DOS:  cpu time    0.0000: real time    0.0000
    --------------------------------------------
      LOOP:  cpu time    0.0031: real time    0.0048

 eigenvalue-minimisations  :    16
 total energy-change (2. order) :-0.3370029E+00  (-0.2561795E+00)
 number of electron       8.0000000 magnetization 
 augmentation part        8.0000000 magnetization 

 Free energy of the ion-electron system (eV)
  ---------------------------------------------------
  alpha Z        PSCENC =         3.29371734
  Ewald energy   TEWEN  =      -226.95723643
  -Hartree energ DENC   =       -11.32090663
  -exchange      EXHF   =         0.00000000
  -V(xc)+E(xc)   XCENC  =       -18.68454667
  PAW double counting   =       176.24759923     -141.06103558
  entropy T*S    EENTRO =        -0.00000000
  eigenvalues    EBANDS =         1.57680033
  atomic energy  EATOM  =       206.13149246
  Solvation  Ediel_sol  =         0.00000000
  ---------------------------------------------------
  free energy    TOTEN  =       -10.77411594 eV

  energy without entropy =      -10.77411594  energy(sigma->0) =      -10.77411594


--------------------------------------------------------------------------------------------------------




--------------------------------------- Iteration      1(   6)  ---------------------------------------


    EDDIAG:  cpu time    0.0016: real time    0.0033
  RMM-DIIS:  cpu time    0.0013: real time    0.0013
    ORTHCH:  cpu time    0.0001: real time    0.0001
       DOS:  cpu time    0.0000: real time    0.0000
    --------------------------------------------
      LOOP:  cpu time    0.0031: real time    0.0047

 eigenvalue-minimisations  :    16
 total energy-change (2. order) :-0.7727689E-01  (-0.6215555E-01)
 number of electron       8.0000000 magnetization 
 augmentation part        8.0000000 magnetization 

 Free energy of the ion-electron system (eV)
  ---------------------------------------------------
  alpha Z        PSCENC =         3.29371734
  Ewald energy   TEWEN  =      -226.95723643
  -Hartree energ DENC   =       -11.32090663
  -exchange      EXHF   =         0.00000000
  -V(xc)+E(xc)   XCENC  =       -18.68454667
  PAW double counting   =       176.24759923     -141.06103558
  entropy T*S    EENTRO =        -0.00000000
  eigenvalues    EBANDS =         1.49952345
  atomic energy  EATOM  =       206.13149246
  Solvation  Ediel_sol  =         0.00000000
  ---------------------------------------------------
  free energy    TOTEN  =       -10.85139283 eV

  energy without entropy =      -10.85139283  energy(sigma->0) =      -10.85139283


--------------------------------------------------------------------------------------------------------




--------------------------------------- Iteration      1(   7)  ---------------------------------------


    EDDIAG:  cpu time    0.0016: real time    0.0029
  RMM-DIIS:  cpu time    0.0028: real time    0.0028
    ORTHCH:  cpu time    0.0001: real time    0.0001
       DOS:  cpu time    0.0000: real time    0.0000
    --------------------------------------------
      LOOP:  cpu time    0.0045: real time    0.0058

 eigenvalue-minimisations  :    41
 total energy-change (2. order) :-0.2214350E-01  (-0.1937037E-01)
 number of electron       8.0000000 magnetization 
 augmentation part        8.0000000 magnetization 

 Free energy of the ion-electron system (eV)
  ---------------------------------------------------
  alpha Z        PSCENC =         3.29371734
  Ewald energy   TEWEN  =      -226.95723643
  -Hartree energ DENC   =       -11.32090663
  -exchange      EXHF   =         0.00000000
  -V(xc)+E(xc)   XCENC  =       -18.68454667
  PAW double counting   =       176.24759923     -141.06103558
  entropy T*S    EENTRO =        -0.00000000
  eigenvalues    EBANDS =         1.47737995
  atomic energy  EATOM  =       206.13149246
  Solvation  Ediel_sol  =         0.00000000
  ---------------------------------------------------
  free energy    TOTEN  =       -10.87353633 eV

  energy without entropy =      -10.87353633  energy(sigma->0) =      -10.87353633


--------------------------------------------------------------------------------------------------------




--------------------------------------- Iteration      1(   8)  ---------------------------------------


    EDDIAG:  cpu time    0.0028: real time    0.0029
  RMM-DIIS:  cpu time    0.0025: real time    0.0025
    ORTHCH:  cpu time    0.0001: real time    0.0001
       DOS:  cpu time    0.0000: real time    0.0000
    --------------------------------------------
      LOOP:  cpu time    0.0056: real time    0.0056

 eigenvalue-minimisations  :    39
 total energy-change (2. order) :-0.2011943E-02  (-0.1439070E-02)
 number of electron       8.0000000 magnetization 
 augmentation part        8.0000000 magnetization 

 Free energy of the ion-electron system (eV)
  ---------------------------------------------------
  alpha Z        PSCENC =         3.29371734
  Ewald energy   TEWEN  =      -226.95723643
  -Hartree energ DENC   =       -11.32090663
  -exchange      EXHF   =         0.00000000
  -V(xc)+E(xc)   XCENC  =       -18.68454667
  PAW double counting   =       176.24759923     -141.06103558
  entropy T*S    EENTRO =        -0.00000000
  eigenvalues    EBANDS =         1.47536800
  atomic energy  EATOM  =       206.13149246
  Solvation  Ediel_sol  =         0.00000000
  ---------------------------------------------------
  free energy    TOTEN  =       -10.87554827 eV

  energy without entropy =      -10.87554827  energy(sigma->0) =      -10.87554827


--------------------------------------------------------------------------------------------------------




--------------------------------------- Iteration      1(   9)  ---------------------------------------


    EDDIAG:  cpu time    0.0028: real time    0.0029
  RMM-DIIS:  cpu time    0.0025: real time    0.0025
    ORTHCH:  cpu time    0.0001: real time    0.0001
       DOS:  cpu time    0.0000: real time    0.0000
    CHARGE:  cpu time    0.0030: real time    0.0030
    MIXING:  cpu time    0.0004: real time    0.0004
    --------------------------------------------
      LOOP:  cpu time    0.0090: real time    0.0091

 eigenvalue-minimisations  :    40
 total energy-change (2. order) :-0.8625946E-04  (-0.8027457E-04)
 number of electron       8.0000000 magnetization 
 augmentation part       -0.4655742 magnetization 

 Broyden mixing:
  rms(total) = 0.48191E+00    rms(broyden)= 0.48191E+00
  rms(prec ) = 0.96593E+00
  weight for this iteration     100.00

 Free energy of the ion-electron system (eV)
  ---------------------------------------------------
  alpha Z        PSCENC =         3.29371734
  Ewald energy   TEWEN  =      -226.95723643
  -Hartree energ DENC   =       -11.32090663
  -exchange      EXHF   =         0.00000000
  -V(xc)+E(xc)   XCENC  =       -18.68454667
  PAW double counting   =       176.24759923     -141.06103558
  entropy T*S    EENTRO =        -0.00000000
  eigenvalues    EBANDS =         1.47528175
  atomic energy  EATOM  =       206.13149246
  Solvation  Ediel_sol  =         0.00000000
  ---------------------------------------------------
  free energy    TOTEN  =       -10.87563453 eV

  energy without entropy =      -10.87563453  energy(sigma->0) =      -10.87563453


--------------------------------------------------------------------------------------------------------




--------------------------------------- Iteration      1(  10)  ---------------------------------------


    POTLOK:  cpu time    0.0053: real time    0.0067
    SETDIJ:  cpu time    0.0010: real time    0.0010
    EDDIAG:  cpu time    0.0015: real time    0.0015
  RMM-DIIS:  cpu time    0.0022: real time    0.0022
    ORTHCH:  cpu time    0.0001: real time    0.0001
       DOS:  cpu time    0.0000: real time    0.0000
    CHARGE:  cpu time    0.0025: real time    0.0025
    MIXING:  cpu time    0.0003: real time    0.0003
    --------------------------------------------
      LOOP:  cpu time    0.0129: real time    0.0144

 eigenvalue-minimisations  :    34
 total energy-change (2. order) : 0.1285736E+00  (-0.5412480E-02)
 number of electron       8.0000000 magnetization 
 augmentation part       -0.4594276 magnetization 

 Broyden mixing:
  rms(total) = 0.29553E+00    rms(broyden)= 0.29553E+00
  rms(prec ) = 0.57763E+00
  weight for this iteration     100.00

 eigenvalues of (default mixing * dielectric matrix)
  average eigenvalue GAMMA=   2.5750
  2.5750

 Free energy of the ion-electron system (eV)
  ---------------------------------------------------
  alpha Z        PSCENC =         3.29371734
  Ewald energy   TEWEN  =      -226.95723643
  -Hartree energ DENC   =       -12.87163082
  -exchange      EXHF   =         0.00000000
  -V(xc)+E(xc)   XCENC  =       -18.44324584
  PAW double counting   =       371.96331258     -336.88283443
  entropy T*S    EENTRO =        -0.00000000
  eigenvalues    EBANDS =         3.01936423
  atomic energy  EATOM  =       206.13149246
  Solvation  Ediel_sol  =         0.00000000
  ---------------------------------------------------
  free energy    TOTEN  =       -10.74706091 eV

  energy without entropy =      -10.74706091  energy(sigma->0) =      -10.74706091


--------------------------------------------------------------------------------------------------------




--------------------------------------- Iteration      1(  11)  ---------------------------------------


    POTLOK:  cpu time    0.0052: real time    0.0072
    SETDIJ:  cpu time    0.0010: real time    0.0010
    EDDIAG:  cpu time    0.0015: real time    0.0015
  RMM-DIIS:  cpu time    0.0021: real time    0.0022
    ORTHCH:  cpu time    0.0001: real time    0.0001
       DOS:  cpu time    0.0000: real time    0.0000
    CHARGE:  cpu time    0.0023: real time    0.0023
    MIXING:  cpu time    0.0003: real time    0.0003
    --------------------------------------------
      LOOP:  cpu time    0.0126: real time    0.0147

 eigenvalue-minimisations  :    33
 total energy-change (2. order) : 0.5868724E-01  (-0.1174795E-01)
 number of electron       8.0000000 magnetization 
 augmentation part       -0.4517928 magnetization 

 Broyden mixing:
  rms(total) = 0.18262E-01    rms(broyden)= 0.18262E-01
  rms(prec ) = 0.42217E-01
  weight for this iteration     100.00

 eigenvalues of (default mixing * dielectric matrix)
  average eigenvalue GAMMA=   2.1060
  1.8646  2.3474

 Free energy of the ion-electron system (eV)
  ---------------------------------------------------
  alpha Z        PSCENC =         3.29371734
  Ewald energy   TEWEN  =      -226.95723643
  -Hartree energ DENC   =       -15.46530414
  -exchange      EXHF   =         0.00000000
  -V(xc)+E(xc)   XCENC  =       -18.03156324
  PAW double counting   =       842.79977072     -807.85741667
  entropy T*S    EENTRO =        -0.00000000
  eigenvalues    EBANDS =         5.39816629
  atomic energy  EATOM  =       206.13149246
  Solvation  Ediel_sol  =         0.00000000
  ---------------------------------------------------
  free energy    TOTEN  =       -10.68837367 eV

  energy without entropy =      -10.68837367  energy(sigma->0) =      -10.68837367


--------------------------------------------------------------------------------------------------------




--------------------------------------- Iteration      1(  12)  ---------------------------------------


    POTLOK:  cpu time    0.0052: real time    0.0071
    SETDIJ:  cpu time    0.0010: real time    0.0010
    EDDIAG:  cpu time    0.0015: real time    0.0015
  RMM-DIIS:  cpu time    0.0024: real time    0.0024
    ORTHCH:  cpu time    0.0001: real time    0.0001
       DOS:  cpu time    0.0000: real time    0.0000
    CHARGE:  cpu time    0.0023: real time    0.0023
    MIXING:  cpu time    0.0003: real time    0.0003
    --------------------------------------------
      LOOP:  cpu time    0.0128: real time    0.0147

 eigenvalue-minimisations  :    37
 total energy-change (2. order) :-0.1443504E-02  (-0.2224911E-03)
 number of electron       8.0000000 magnetization 
 augmentation part       -0.4527378 magnetization 

 Broyden mixing:
  rms(total) = 0.77116E-02    rms(broyden)= 0.77115E-02
  rms(prec ) = 0.13388E-01
  weight for this iteration     100.00

 eigenvalues of (default mixing * dielectric matrix)
  average eigenvalue GAMMA=   2.3354
  3.0231  1.9915  1.9915

 Free energy of the ion-electron system (eV)
  ---------------------------------------------------
  alpha Z        PSCENC =         3.29371734
  Ewald energy   TEWEN  =      -226.95723643
  -Hartree energ DENC   =       -15.39769988
  -exchange      EXHF   =         0.00000000
  -V(xc)+E(xc)   XCENC  =       -18.03167944
  PAW double counting   =       849.30821206     -814.33715906
  entropy T*S    EENTRO =        -0.00000000
  eigenvalues    EBANDS =         5.30053578
  atomic energy  EATOM  =       206.13149246
  Solvation  Ediel_sol  =         0.00000000
  ---------------------------------------------------
  free energy    TOTEN  =       -10.68981717 eV

  energy without entropy =      -10.68981717  energy(sigma->0) =      -10.68981717


--------------------------------------------------------------------------------------------------------




--------------------------------------- Iteration      1(  13)  ---------------------------------------


    POTLOK:  cpu time    0.0052: real time    0.0066
    SETDIJ:  cpu time    0.0010: real time    0.0010
    EDDIAG:  cpu time    0.0015: real time    0.0015
  RMM-DIIS:  cpu time    0.0022: real time    0.0022
    ORTHCH:  cpu time    0.0001: real time    0.0001
       DOS:  cpu time    0.0000: real time    0.0000
    CHARGE:  cpu time    0.0023: real time    0.0023
    MIXING:  cpu time    0.0003: real time    0.0003
    --------------------------------------------
      LOOP:  cpu time    0.0125: real time    0.0140

 eigenvalue-minimisations  :    34
 total energy-change (2. order) :-0.2657764E-03  (-0.3367523E-04)
 number of electron       8.0000000 magnetization 
 augmentation part       -0.4529404 magnetization 

 Broyden mixing:
  rms(total) = 0.56030E-02    rms(broyden)= 0.56030E-02
  rms(prec ) = 0.64683E-02
  weight for this iteration     100.00

 eigenvalues of (default mixing * dielectric matrix)
  average eigenvalue GAMMA=   2.1548
  0.9235  2.9174  2.3891  2.3891

 Free energy of the ion-electron system (eV)
  ---------------------------------------------------
  alpha Z        PSCENC =         3.29371734
  Ewald energy   TEWEN  =      -226.95723643
  -Hartree energ DENC   =       -15.42914676
  -exchange      EXHF   =         0.00000000
  -V(xc)+E(xc)   XCENC  =       -18.02486469
  PAW double counting   =       849.85002941     -814.87520057
  entropy T*S    EENTRO =        -0.00000000
  eigenvalues    EBANDS =         5.32112629
  atomic energy  EATOM  =       206.13149246
  Solvation  Ediel_sol  =         0.00000000
  ---------------------------------------------------
  free energy    TOTEN  =       -10.69008295 eV

  energy without entropy =      -10.69008295  energy(sigma->0) =      -10.69008295


--------------------------------------------------------------------------------------------------------




--------------------------------------- Iteration      1(  14)  ---------------------------------------


    POTLOK:  cpu time    0.0052: real time    0.0069
    SETDIJ:  cpu time    0.0010: real time    0.0010
    EDDIAG:  cpu time    0.0015: real time    0.0015
  RMM-DIIS:  cpu time    0.0024: real time    0.0024
    ORTHCH:  cpu time    0.0001: real time    0.0001
       DOS:  cpu time    0.0000: real time    0.0000
    CHARGE:  cpu time    0.0024: real time    0.0024
    MIXING:  cpu time    0.0003: real time    0.0003
    --------------------------------------------
      LOOP:  cpu time    0.0129: real time    0.0146

 eigenvalue-minimisations  :    35
 total energy-change (2. order) :-0.3181577E-04  (-0.5572613E-05)
 number of electron       8.0000000 magnetization 
 augmentation part       -0.4529269 magnetization 

 Broyden mixing:
  rms(total) = 0.42795E-03    rms(broyden)= 0.42795E-03
  rms(prec ) = 0.99554E-03
  weight for this iteration     100.00

 eigenvalues of (default mixing * dielectric matrix)
  average eigenvalue GAMMA=   1.9975
  3.1203  2.5899  2.2298  0.9381  1.1095

 Free energy of the ion-electron system (eV)
  ---------------------------------------------------
  alpha Z        PSCENC =         3.29371734
  Ewald energy   TEWEN  =      -226.95723643
  -Hartree energ DENC   =       -15.44484940
  -exchange      EXHF   =         0.00000000
  -V(xc)+E(xc)   XCENC  =       -18.02349419
  PAW double counting   =       840.49642143     -805.52291334
  entropy T*S    EENTRO =        -0.00000000
  eigenvalues    EBANDS =         5.33674736
  atomic energy  EATOM  =       206.13149246
  Solvation  Ediel_sol  =         0.00000000
  ---------------------------------------------------
  free energy    TOTEN  =       -10.69011477 eV

  energy without entropy =      -10.69011477  energy(sigma->0) =      -10.69011477


--------------------------------------------------------------------------------------------------------




--------------------------------------- Iteration      1(  15)  ---------------------------------------


    POTLOK:  cpu time    0.0050: real time    0.0064
    SETDIJ:  cpu time    0.0011: real time    0.0011
    EDDIAG:  cpu time    0.0015: real time    0.0015
  RMM-DIIS:  cpu time    0.0026: real time    0.0026
    ORTHCH:  cpu time    0.0002: real time    0.0002
       DOS:  cpu time    0.0000: real time    0.0000
    --------------------------------------------
      LOOP:  cpu time    0.0104: real time    0.0119

 eigenvalue-minimisations  :    35
 total energy-change (2. order) : 0.1044361E-07  (-0.3854008E-06)
 number of electron       8.0000000 magnetization 
 augmentation part       -0.4529269 magnetization 

 Free energy of the ion-electron system (eV)
  ---------------------------------------------------
  alpha Z        PSCENC =         3.29371734
  Ewald energy   TEWEN  =      -226.95723643
  -Hartree energ DENC   =       -15.44107224
  -exchange      EXHF   =         0.00000000
  -V(xc)+E(xc)   XCENC  =       -18.02406859
  PAW double counting   =       839.59826309     -804.62406767
  entropy T*S    EENTRO =        -0.00000000
  eigenvalues    EBANDS =         5.33285728
  atomic energy  EATOM  =       206.13149246
  Solvation  Ediel_sol  =         0.00000000
  ---------------------------------------------------
  free energy    TOTEN  =       -10.69011476 eV

  energy without entropy =      -10.69011476  energy(sigma->0) =      -10.69011476


--------------------------------------------------------------------------------------------------------




 average (electrostatic) potential at core
  the test charge radii are     0.9892
  (the norm of the test charge is              1.0000)
       1 -83.4259       2 -83.4259
 
 
 
 E-fermi :   5.0214     XC(G=0):  -9.3044     alpha+bet :-11.7336


 k-point     1 :       0.2500    0.2500    0.2500
  band No.  band energies     occupation 
      1      -5.3834      2.00000
      2       1.7621      2.00000
      3       4.9057      2.00000
      4       4.9057      2.00000
      5       7.6079      0.00000
      6       9.1307      0.00000
      7       9.1307      0.00000
      8      12.4089      0.00000

 k-point     2 :      -0.2500    0.2500    0.2500
  band No.  band energies     occupation 
      1      -3.5025      2.00000
      2      -0.6747      2.00000
      3       2.1821      2.00000
      4       3.4870      2.00000
      5       7.1836      0.00000
      6      10.0773      0.00000
      7      11.2963      0.00000
      8      11.5195      0.00000


--------------------------------------------------------------------------------------------------------


 soft charge-density along one line, spin component           1
         0         1         2         3         4         5         6         7         8         9
 total charge-density along one line
 
 pseudopotential strength for first ion, spin component:           1
 18.432  25.716   0.000   0.000   0.000   0.000   0.000   0.000
 25.716  35.883   0.000   0.000   0.000   0.000   0.000   0.000
  0.000   0.000   4.180  -0.000  -0.000   7.790  -0.000  -0.000
  0.000   0.000  -0.000   4.180  -0.000  -0.000   7.790  -0.000
  0.000   0.000  -0.000  -0.000   4.180  -0.000  -0.000   7.790
  0.000   0.000   7.790  -0.000  -0.000  14.527  -0.000  -0.000
  0.000   0.000  -0.000   7.790  -0.000  -0.000  14.527  -0.000
  0.000   0.000  -0.000  -0.000   7.790  -0.000  -0.000  14.527
 total augmentation occupancy for first ion, spin component:           1
  5.559  -2.073   0.000   0.000   0.000  -0.000  -0.000  -0.000
 -2.073   0.868  -0.000  -0.000  -0.000   0.000   0.000   0.000
  0.000  -0.000   2.929   0.000  -0.000  -0.651   0.000  -0.000
  0.000  -0.000   0.000   2.929  -0.000   0.000  -0.651   0.000
  0.000  -0.000  -0.000   0.000   2.929  -0.000   0.000  -0.651
 -0.000   0.000  -0.651   0.000  -0.000   0.154  -0.000   0.000
 -0.000   0.000   0.000  -0.651   0.000  -0.000   0.154  -0.000
 -0.000  -0.000  -0.000   0.000  -0.651   0.000   0.000   0.154


------------------------ aborting loop because EDIFF is reached ----------------------------------------


    CHARGE:  cpu time    0.0024: real time    0.0024
    FORLOC:  cpu time    0.0003: real time    0.0003
    FORNL :  cpu time    0.0040: real time    0.0040
    STRESS:  cpu time    0.0118: real time    0.0119
    FORCOR:  cpu time    0.0050: real time    0.0050
    FORHAR:  cpu time    0.0012: real time    0.0012
    MIXING:  cpu time    0.0003: real time    0.0003
    OFIELD:  cpu time    0.0000: real time    0.0000

  FORCE on cell =-STRESS in cart. coord.  units (eV):
  Direction    XX          YY          ZZ          XY          YZ          ZX
  --------------------------------------------------------------------------------------
  Alpha Z     3.29372     3.29372     3.29372
  Ewald     -75.65245   -75.65245   -75.65245     0.00000     0.00000     0.00000
  Hartree     5.14766     5.14766     5.14766     0.00000     0.00000     0.00000
  E(xc)     -25.28890   -25.28890   -25.28890     0.00000     0.00000     0.00000
  Local     -29.65295   -29.65295   -29.65295     0.00001     0.00001     0.00001
  n-local    73.47173    78.95339    78.95333    -0.64868    -3.20226    -0.64867
  augment   -11.51224   -11.51224   -11.51224    -0.00001    -0.00001    -0.00001
  Kinetic    54.34231    57.77890    57.77889    -0.82847    -6.14346    -0.82848
  Fock        0.00000     0.00000     0.00000     0.00000     0.00000     0.00000
  -------------------------------------------------------------------------------------
  Total       0.09436     0.09436     0.09436     0.00000     0.00000    -0.00000
  in kB       3.69790     3.69790     3.69790     0.00000     0.00000    -0.00000
  external pressure =        3.70 kB  Pullay stress =        0.00 kB


 VOLUME and BASIS-vectors are now :
 -----------------------------------------------------------------------------
  energy-cutoff  :      400.00
  volume of cell :       40.88
      direct lattice vectors                 reciprocal lattice vectors
     0.000000000  2.734215396  2.734215396    -0.182867817  0.182867817  0.182867817
     2.734215396  0.000000000  2.734215396     0.182867817 -0.182867817  0.182867817
     2.734215396  2.734215396  0.000000000     0.182867817  0.182867817 -0.182867817

  length of vectors
     3.866764496  3.866764496  3.866764496     0.316736350  0.316736350  0.316736350


 FORCES acting on ions
    electron-ion (+dipol)            ewald-force                    non-local-force                 convergence-correction
 -----------------------------------------------------------------------------------------------
   0.927E-08 0.927E-08 0.561E-08   -.194E-14 -.572E-14 -.619E-14   -.317E-15 -.199E-15 -.312E-15   0.216E-10 0.216E-10 0.216E-10
   -.927E-08 -.927E-08 -.561E-08   0.191E-14 0.548E-14 0.603E-14   0.330E-15 0.246E-15 0.333E-15   -.216E-10 -.216E-10 -.216E-10
 -----------------------------------------------------------------------------------------------
   0.115E-12 0.491E-13 -.487E-14   -.271E-16 -.249E-15 -.159E-15   0.121E-16 0.468E-16 0.208E-16   -.401E-14 -.304E-14 0.133E-14
 
 
 POSITION                                       TOTAL-FORCE (eV/Angst)
 -----------------------------------------------------------------------------------
      0.00000      0.00000      0.00000        -0.000000     -0.000000     -0.000000
      1.36711      1.36711      1.36711         0.000000      0.000000      0.000000
 -----------------------------------------------------------------------------------
    total drift:                                0.000000      0.000000     -0.000000


--------------------------------------------------------------------------------------------------------



  FREE ENERGIE OF THE ION-ELECTRON SYSTEM (eV)
  ---------------------------------------------------
  free  energy   TOTEN  =       -10.69011476 eV

  energy  without entropy=      -10.69011476  energy(sigma->0) =      -10.69011476
 


--------------------------------------------------------------------------------------------------------


    POTLOK:  cpu time    0.0060: real time    0.0061


--------------------------------------------------------------------------------------------------------


     LOOP+:  cpu time    0.1584: real time    0.1843
    4ORBIT:  cpu time    0.0000: real time    0.0000

 total amount of memory used by VASP MPI-rank0    31857. kBytes
=======================================================================

   base      :      30000. kBytes
   nonlr-proj:        419. kBytes
   fftplans  :        584. kBytes
   grid      :        839. kBytes
   one-center:          3. kBytes
   wavefun   :         12. kBytes
 
  
  
 General timing and accounting informations for this job:
 ========================================================
  
                  Total CPU time used (sec):        0.808
                            User time (sec):        0.404
                          System time (sec):        0.404
                         Elapsed time (sec):        0.990
  
                   Maximum memory used (kb):      171836.
                   Average memory used (kb):           0.
  
                          Minor page faults:        17343
                          Major page faults:            0
                 Voluntary context switches:         2151
