<?xml version="1.0" encoding="ISO-8859-1"?>
<modeling>
 <generator>
  <i name="program" type="string">vasp </i>
  <i name="version" type="string">5.4.4.18Apr17-6-g9f103f2a35  </i>
  <i name="subversion" type="string">(build Mar 10 2023 13:05:35) complex            parallel </i>
  <i name="platform" type="string">LinuxIFC </i>
  <i name="date" type="string">2023 03 27 </i>
  <i name="time" type="string">12:05:38 </i>
 </generator>
 <incar>
  <i type="string" name="PREC">accurate</i>
  <i type="string" name="ALGO"> Very_Fast</i>
  <i type="int" name="NELM">   500</i>
  <i type="int" name="NELMDL">    -9</i>
  <i type="int" name="NELMIN">     6</i>
  <i type="int" name="IBRION">    -1</i>
  <i name="EDIFF">      0.00000100</i>
  <i name="EDIFFG">     -0.01000000</i>
  <i type="int" name="NSW">     0</i>
  <i type="int" name="ISIF">     3</i>
  <i type="int" name="ISYM">     2</i>
  <i name="ENCUT">    400.00000000</i>
  <i name="POTIM">      0.15000000</i>
  <i type="string" name="LREAL"> Auto</i>
  <i type="logical" name="LPLANE"> T  </i>
  <i type="int" name="ISMEAR">     0</i>
  <i name="SIGMA">      0.02000000</i>
  <i type="logical" name="LWAVE"> F  </i>
  <i type="logical" name="LCHARG"> F  </i>
  <v type="int" name="KPOINT_BSE">    -1     0     0     0</v>
  <i type="int" name="NELM">   500</i>
  <i type="string" name="GGA"> PE</i>
 </incar>
 <structure name="primitive_cell" >
  <crystal>
   <varray name="basis" >
    <v>       0.00000000       2.73421540       2.73421540 </v>
    <v>       2.73421540       0.00000000       2.73421540 </v>
    <v>       2.73421540       2.73421540       0.00000000 </v>
   </varray>
   <i name="volume">     40.88162679 </i>
   <varray name="rec_basis" >
    <v>      -0.18286782       0.18286782       0.18286782 </v>
    <v>       0.18286782      -0.18286782       0.18286782 </v>
    <v>       0.18286782       0.18286782      -0.18286782 </v>
   </varray>
  </crystal>
  <varray name="positions" >
   <v>       0.00000000       0.00000000       0.00000000 </v>
   <v>       0.25000000       0.25000000       0.25000000 </v>
  </varray>
 </structure>
 <varray name="primitive_index" >
  <v type="int" >        1 </v>
  <v type="int" >        2 </v>
 </varray>
 <kpoints>
  <generation param="Monkhorst-Pack">
   <v type="int" name="divisions">       2        2        2 </v>
   <v name="usershift">      0.00000000       0.00000000       0.00000000 </v>
   <v name="genvec1">      0.50000000       0.00000000       0.00000000 </v>
   <v name="genvec2">      0.00000000       0.50000000       0.00000000 </v>
   <v name="genvec3">      0.00000000       0.00000000       0.50000000 </v>
   <v name="shift">      0.50000000       0.50000000       0.50000000 </v>
  </generation>
  <varray name="kpointlist" >
   <v>       0.25000000       0.25000000       0.25000000 </v>
   <v>      -0.25000000       0.25000000       0.25000000 </v>
  </varray>
  <varray name="weights" >
   <v>       0.25000000 </v>
   <v>       0.75000000 </v>
  </varray>
 </kpoints>
 <parameters>
  <separator name="general" >
   <i type="string" name="SYSTEM">unknown system</i>
   <i type="logical" name="LCOMPAT"> F  </i>
  </separator>
  <separator name="electronic" >
   <i type="string" name="PREC">accura</i>
   <i name="ENMAX">    400.00000000</i>
   <i name="ENAUG">    322.06900000</i>
   <i name="EDIFF">      0.00000100</i>
   <i type="int" name="IALGO">    48</i>
   <i type="int" name="IWAVPR">    10</i>
   <i type="int" name="NBANDS">     8</i>
   <i name="NELECT">      8.00000000</i>
   <i type="int" name="TURBO">     0</i>
   <i type="int" name="IRESTART">     0</i>
   <i type="int" name="NREBOOT">     0</i>
   <i type="int" name="NMIN">     0</i>
   <i name="EREF">      0.00000000</i>
   <separator name="electronic smearing" >
    <i type="int" name="ISMEAR">     0</i>
    <i name="SIGMA">      0.02000000</i>
    <i name="KSPACING">      0.50000000</i>
    <i type="logical" name="KGAMMA"> T  </i>
   </separator>
   <separator name="electronic projectors" >
    <i type="logical" name="LREAL"> T  </i>
    <v name="ROPT">     -0.00025000</v>
    <i type="int" name="LMAXPAW">  -100</i>
    <i type="int" name="LMAXMIX">     2</i>
    <i type="logical" name="NLSPLINE"> F  </i>
   </separator>
   <separator name="electronic startup" >
    <i type="int" name="ISTART">     0</i>
    <i type="int" name="ICHARG">     2</i>
    <i type="int" name="INIWAV">     1</i>
   </separator>
   <separator name="electronic spin" >
    <i type="int" name="ISPIN">     1</i>
    <i type="logical" name="LNONCOLLINEAR"> F  </i>
    <v name="MAGMOM">      1.00000000      1.00000000</v>
    <i name="NUPDOWN">     -1.00000000</i>
    <i type="logical" name="LSORBIT"> F  </i>
    <v name="SAXIS">      0.00000000      0.00000000      1.00000000</v>
    <i type="logical" name="LSPIRAL"> F  </i>
    <v name="QSPIRAL">      0.00000000      0.00000000      0.00000000</v>
    <i type="logical" name="LZEROZ"> F  </i>
   </separator>
   <separator name="electronic exchange-correlation" >
    <i type="logical" name="LASPH"> F  </i>
    <i type="logical" name="LMETAGGA"> F  </i>
   </separator>
   <separator name="electronic convergence" >
    <i type="int" name="NELM">   500</i>
    <i type="int" name="NELMDL">    -9</i>
    <i type="int" name="NELMIN">     6</i>
    <i name="ENINI">    400.00000000</i>
    <separator name="electronic convergence detail" >
     <i type="logical" name="LDIAG"> T  </i>
     <i type="logical" name="LSUBROT"> F  </i>
     <i name="WEIMIN">      0.00000000</i>
     <i name="EBREAK">      0.00000003</i>
     <i name="DEPER">      0.30000000</i>
     <i type="int" name="NRMM">     4</i>
     <i name="TIME">      0.40000000</i>
    </separator>
   </separator>
   <separator name="electronic mixer" >
    <i name="AMIX">      0.40000000</i>
    <i name="BMIX">      1.00000000</i>
    <i name="AMIN">      0.10000000</i>
    <i name="AMIX_MAG">      1.60000000</i>
    <i name="BMIX_MAG">      1.00000000</i>
    <separator name="electronic mixer details" >
     <i type="int" name="IMIX">     4</i>
     <i type="logical" name="MIXFIRST"> F  </i>
     <i type="int" name="MAXMIX">   -45</i>
     <i name="WC">    100.00000000</i>
     <i type="int" name="INIMIX">     1</i>
     <i type="int" name="MIXPRE">     1</i>
     <i type="int" name="MREMOVE">     5</i>
    </separator>
   </separator>
   <separator name="electronic dipolcorrection" >
    <i type="logical" name="LDIPOL"> F  </i>
    <i type="logical" name="LMONO"> F  </i>
    <i type="int" name="IDIPOL">     0</i>
    <i name="EPSILON">      1.00000000</i>
    <v name="DIPOL">   -100.00000000   -100.00000000   -100.00000000</v>
    <i name="EFIELD">      0.00000000</i>
   </separator>
  </separator>
  <separator name="grids" >
   <i type="int" name="NGX">    28</i>
   <i type="int" name="NGY">    28</i>
   <i type="int" name="NGZ">    28</i>
   <i type="int" name="NGXF">    56</i>
   <i type="int" name="NGYF">    56</i>
   <i type="int" name="NGZF">    56</i>
   <i type="logical" name="ADDGRID"> F  </i>
  </separator>
  <separator name="ionic" >
   <i type="int" name="NSW">     0</i>
   <i type="int" name="IBRION">    -1</i>
   <i type="int" name="MDALGO">     0</i>
   <i type="int" name="ISIF">     3</i>
   <i name="PSTRESS">      0.00000000</i>
   <i name="EDIFFG">     -0.01000000</i>
   <i type="int" name="NFREE">     0</i>
   <i name="POTIM">      0.15000000</i>
   <i name="SMASS">     -3.00000000</i>
   <i name="SCALEE">      1.00000000</i>
  </separator>
  <separator name="ionic md" >
   <i name="TEBEG">      0.00010000</i>
   <i name="TEEND">      0.00010000</i>
   <i type="int" name="NBLOCK">     1</i>
   <i type="int" name="KBLOCK">     1</i>
   <i type="int" name="NPACO">   256</i>
   <i name="APACO">     16.00000000</i>
  </separator>
  <separator name="symmetry" >
   <i type="int" name="ISYM">     2</i>
   <i name="SYMPREC">      0.00001000</i>
  </separator>
  <separator name="dos" >
   <i type="int" name="LORBIT">     0</i>
   <v name="RWIGS">     -1.00000000</v>
   <i type="int" name="NEDOS">   301</i>
   <i name="EMIN">     10.00000000</i>
   <i name="EMAX">    -10.00000000</i>
   <i name="EFERMI">      0.00000000</i>
  </separator>
  <separator name="writing" >
   <i type="int" name="NWRITE">     2</i>
   <i type="logical" name="LWAVE"> F  </i>
   <i type="logical" name="LDOWNSAMPLE"> F  </i>
   <i type="logical" name="LCHARG"> F  </i>
   <i type="logical" name="LPARD"> F  </i>
   <i type="logical" name="LVTOT"> F  </i>
   <i type="logical" name="LVHAR"> F  </i>
   <i type="logical" name="LELF"> F  </i>
   <i type="logical" name="LOPTICS"> F  </i>
   <v name="STM">      0.00000000      0.00000000      0.00000000      0.00000000      0.00000000      0.00000000      0.00000000</v>
  </separator>
  <separator name="performance" >
   <i type="int" name="NPAR">     4</i>
   <i type="int" name="NSIM">     4</i>
   <i type="int" name="NBLK">    -1</i>
   <i type="logical" name="LPLANE"> T  </i>
   <i type="logical" name="LSCALAPACK"> T  </i>
   <i type="logical" name="LSCAAWARE"> F  </i>
   <i type="logical" name="LSCALU"> F  </i>
   <i type="logical" name="LASYNC"> F  </i>
   <i type="logical" name="LORBITALREAL"> F  </i>
  </separator>
  <separator name="miscellaneous" >
   <i type="int" name="IDIOT">     3</i>
   <i type="int" name="ISPECIAL">     0</i>
   <i type="logical" name="LMUSIC"> F  </i>
   <v name="POMASS">     28.08500000</v>
   <v name="DARWINR">      0.00000000</v>
   <v name="DARWINV">      1.00000000</v>
   <i type="logical" name="LCORR"> T  </i>
  </separator>
  <i type="logical" name="GGA_COMPAT"> T  </i>
  <i type="logical" name="LBERRY"> F  </i>
  <i type="int" name="ICORELEVEL">     0</i>
  <i type="logical" name="LDAU"> F  </i>
  <i type="int" name="I_CONSTRAINED_M">     0</i>
  <separator name="electronic exchange-correlation" >
   <i type="string" name="GGA">PE</i>
   <i type="int" name="VOSKOWN">     0</i>
   <i type="logical" name="LHFCALC"> F  </i>
   <i type="string" name="PRECFOCK"></i>
   <i type="logical" name="LSYMGRAD"> F  </i>
   <i type="logical" name="LHFONE"> F  </i>
   <i type="logical" name="LRHFCALC"> F  </i>
   <i type="logical" name="LTHOMAS"> F  </i>
   <i type="logical" name="LMODELHF"> F  </i>
   <i name="ENCUT4O">     -1.00000000</i>
   <i type="int" name="EXXOEP">     0</i>
   <i type="int" name="FOURORBIT">     0</i>
   <i name="AEXX">      0.00000000</i>
   <i name="HFALPHA">      0.00000000</i>
   <i name="MCALPHA">      0.00000000</i>
   <i name="ALDAX">      1.00000000</i>
   <i name="AGGAX">      1.00000000</i>
   <i name="ALDAC">      1.00000000</i>
   <i name="AGGAC">      1.00000000</i>
   <i type="int" name="NKREDX">     1</i>
   <i type="int" name="NKREDY">     1</i>
   <i type="int" name="NKREDZ">     1</i>
   <i type="logical" name="SHIFTRED"> F  </i>
   <i type="logical" name="ODDONLY"> F  </i>
   <i type="logical" name="EVENONLY"> F  </i>
   <i type="int" name="LMAXFOCK">     0</i>
   <i type="int" name="NMAXFOCKAE">     0</i>
   <i type="logical" name="LFOCKAEDFT"> F  </i>
   <i name="HFSCREEN">      0.00000000</i>
   <i name="HFSCREENC">      0.00000000</i>
   <i type="int" name="NBANDSGWLOW">     0</i>
  </separator>
  <separator name="vdW DFT" >
   <i type="logical" name="LUSE_VDW"> F  </i>
   <i name="Zab_VDW">     -0.84910000</i>
   <i name="PARAM1">      0.12340000</i>
   <i name="PARAM2">      1.00000000</i>
   <i name="PARAM3">      0.00000000</i>
  </separator>
  <separator name="model GW" >
   <i type="int" name="MODEL_GW">     0</i>
   <i name="MODEL_EPS0">     12.26448804</i>
   <i name="MODEL_ALPHA">      1.00000000</i>
  </separator>
  <separator name="linear response parameters" >
   <i type="logical" name="LEPSILON"> F  </i>
   <i type="logical" name="LRPA"> F  </i>
   <i type="logical" name="LNABLA"> F  </i>
   <i type="logical" name="LVEL"> F  </i>
   <i type="int" name="KINTER">     0</i>
   <i name="CSHIFT">      0.10000000</i>
   <i name="OMEGAMAX">     -1.00000000</i>
   <i name="DEG_THRESHOLD">      0.00200000</i>
   <i name="RTIME">     -0.10000000</i>
   <i name="WPLASMAI">      0.00000000</i>
   <v name="DFIELD">      0.00000000      0.00000000      0.00000000</v>
   <v name="WPLASMA">      0.00000000      0.00000000      0.00000000      0.00000000      0.00000000      0.00000000      0.00000000      0.00000000      0.00000000</v>
  </separator>
  <separator name="orbital magnetization" >
   <i type="logical" name="NUCIND"> F  </i>
   <v name="MAGPOS">      0.00000000      0.00000000      0.00000000</v>
   <i type="logical" name="LNICSALL"> T  </i>
   <i type="logical" name="ORBITALMAG"> F  </i>
   <i type="logical" name="LMAGBLOCH"> F  </i>
   <i type="logical" name="LCHIMAG"> F  </i>
   <i type="logical" name="LGAUGE"> T  </i>
   <i type="int" name="MAGATOM">     0</i>
   <v name="MAGDIPOL">      0.00000000      0.00000000      0.00000000</v>
   <v name="AVECCONST">      0.00000000      0.00000000      0.00000000</v>
  </separator>
  <separator name="response functions" >
   <i type="logical" name="LADDER"> F  </i>
   <i type="logical" name="LRPAFORCE"> F  </i>
   <i type="logical" name="LFXC"> F  </i>
   <i type="logical" name="LHARTREE"> T  </i>
   <i type="int" name="IBSE">     0</i>
   <v type="int" name="KPOINT">    -1     0     0     0</v>
   <i type="logical" name="LTCTE"> F  </i>
   <i type="logical" name="LTETE"> F  </i>
   <i type="logical" name="LTRIPLET"> F  </i>
   <i type="logical" name="LFXCEPS"> F  </i>
   <i type="logical" name="LFXHEG"> F  </i>
   <i type="int" name="NATURALO">     2</i>
   <i type="logical" name="L2ORDER"> F  </i>
   <i type="logical" name="LMP2LT"> F  </i>
   <i type="logical" name="LUSEW"> F  </i>
   <i name="ENCUTGW">     -2.00000000</i>
   <i name="ENCUTGWSOFT">     -2.00000000</i>
   <i name="ENCUTLF">     -1.00000000</i>
   <i type="int" name="LMAXMP2">    -1</i>
   <i name="SCISSOR">      0.00000000</i>
   <i type="int" name="NOMEGA">     0</i>
   <i type="int" name="NOMEGAR">     0</i>
   <i type="int" name="NBANDSGW">    -1</i>
   <i type="int" name="NBANDSO">    -1</i>
   <i type="int" name="NBANDSV">    -1</i>
   <i type="int" name="NELM">   500</i>
   <i type="int" name="NELMHF">     1</i>
   <i type="int" name="DIM">     3</i>
   <i type="int" name="ANTIRES">     0</i>
   <i name="OMEGAMAX">    -30.00000000</i>
   <i name="OMEGAMIN">    -30.00000000</i>
   <i name="OMEGATL">   -200.00000000</i>
   <i type="int" name="OMEGAGRID">   140</i>
   <i name="CSHIFT">     -0.10000000</i>
   <i type="logical" name="SELFENERGY"> F  </i>
   <i type="logical" name="LSPECTRAL"> F  </i>
   <i type="logical" name="LSPECTRALGW"> F  </i>
   <i type="logical" name="LSINGLES"> F  </i>
   <i type="logical" name="LFERMIGW"> F  </i>
   <i type="logical" name="ODDONLYGW"> F  </i>
   <i type="logical" name="EVENONLYGW"> F  </i>
   <i type="int" name="NKREDLFX">     1</i>
   <i type="int" name="NKREDLFY">     1</i>
   <i type="int" name="NKREDLFZ">     1</i>
   <i type="int" name="MAXMEM">  2800</i>
   <i type="int" name="TELESCOPE">     0</i>
   <i type="int" name="TAUPAR">     1</i>
   <i type="int" name="OMEGAPAR">    -1</i>
   <i name="LAMBDA">      1.00000000</i>
  </separator>
  <separator name="External order field" >
   <i name="OFIELD_KAPPA">      0.00000000</i>
   <v name="OFIELD_K">      0.00000000      0.00000000      0.00000000</v>
   <i name="OFIELD_Q6_NEAR">      0.00000000</i>
   <i name="OFIELD_Q6_FAR">      0.00000000</i>
   <i name="OFIELD_A">      0.00000000</i>
  </separator>
  <separator name="solvation model" >
   <i type="logical" name="LSOL"> F  </i>
  </separator>
 </parameters>
 <atominfo>
  <atoms>       2 </atoms>
  <types>       1 </types>
  <array name="atoms" >
   <dimension dim="1">ion</dimension>
   <field type="string">element</field>
   <field type="int">atomtype</field>
   <set>
    <rc><c>Si</c><c>   1</c></rc>
    <rc><c>Si</c><c>   1</c></rc>
   </set>
  </array>
  <array name="atomtypes" >
   <dimension dim="1">type</dimension>
   <field type="int">atomspertype</field>
   <field type="string">element</field>
   <field>mass</field>
   <field>valence</field>
   <field type="string">pseudopotential</field>
   <set>
    <rc><c>   2</c><c>Si</c><c>     28.08500000</c><c>      4.00000000</c><c>  PAW_PBE Si 05Jan2001                  </c></rc>
   </set>
  </array>
 </atominfo>
 <structure name="initialpos" >
  <crystal>
   <varray name="basis" >
    <v>       0.00000000       2.73421540       2.73421540 </v>
    <v>       2.73421540       0.00000000       2.73421540 </v>
    <v>       2.73421540       2.73421540       0.00000000 </v>
   </varray>
   <i name="volume">     40.88162679 </i>
   <varray name="rec_basis" >
    <v>      -0.18286782       0.18286782       0.18286782 </v>
    <v>       0.18286782      -0.18286782       0.18286782 </v>
    <v>       0.18286782       0.18286782      -0.18286782 </v>
   </varray>
  </crystal>
  <varray name="positions" >
   <v>       0.00000000       0.00000000       0.00000000 </v>
   <v>       0.25000000       0.25000000       0.25000000 </v>
  </varray>
 </structure>
 <calculation>
  <scstep>
   <time name="diag">    0.00    0.00</time>
   <time name="diis">    0.00    0.00</time>
   <time name="orth">    0.00    0.00</time>
   <time name="total">    0.01    0.02</time>
   <energy>
    <i name="alphaZ">      3.29371734 </i>
    <i name="ewald">   -226.95723643 </i>
    <i name="hartreedc">    -11.32090663 </i>
    <i name="XCdc">    -18.68454667 </i>
    <i name="pawpsdc">    176.24759923 </i>
    <i name="pawaedc">   -141.06103558 </i>
    <i name="eentropy">     -0.00000000 </i>
    <i name="bandstr">     46.17070250 </i>
    <i name="atom">    206.13149246 </i>
    <i name="e_fr_energy">     33.81978623 </i>
    <i name="e_wo_entrp">     33.81978623 </i>
    <i name="e_0_energy">     33.81978623 </i>
   </energy>
  </scstep>
  <scstep>
   <time name="diag">    0.00    0.00</time>
   <time name="diis">    0.00    0.00</time>
   <time name="orth">    0.00    0.00</time>
   <time name="total">    0.00    0.01</time>
   <energy>
    <i name="e_fr_energy">      3.25266732 </i>
    <i name="e_wo_entrp">      3.25266732 </i>
    <i name="e_0_energy">      3.25266732 </i>
   </energy>
  </scstep>
  <scstep>
   <time name="diag">    0.00    0.00</time>
   <time name="diis">    0.00    0.00</time>
   <time name="orth">    0.00    0.00</time>
   <time name="total">    0.00    0.00</time>
   <energy>
    <i name="e_fr_energy">     -8.61746740 </i>
    <i name="e_wo_entrp">     -8.61746740 </i>
    <i name="e_0_energy">     -8.61746740 </i>
   </energy>
  </scstep>
  <scstep>
   <time name="diag">    0.00    0.00</time>
   <time name="diis">    0.00    0.00</time>
   <time name="orth">    0.00    0.00</time>
   <time name="total">    0.00    0.00</time>
   <energy>
    <i name="e_fr_energy">    -10.43711307 </i>
    <i name="e_wo_entrp">    -10.43711307 </i>
    <i name="e_0_energy">    -10.43711307 </i>
   </energy>
  </scstep>
  <scstep>
   <time name="diag">    0.00    0.00</time>
   <time name="diis">    0.00    0.00</time>
   <time name="orth">    0.00    0.00</time>
   <time name="total">    0.00    0.00</time>
   <energy>
    <i name="e_fr_energy">    -10.77411594 </i>
    <i name="e_wo_entrp">    -10.77411594 </i>
    <i name="e_0_energy">    -10.77411594 </i>
   </energy>
  </scstep>
  <scstep>
   <time name="diag">    0.00    0.00</time>
   <time name="diis">    0.00    0.00</time>
   <time name="orth">    0.00    0.00</time>
   <time name="total">    0.00    0.00</time>
   <energy>
    <i name="e_fr_energy">    -10.85139283 </i>
    <i name="e_wo_entrp">    -10.85139283 </i>
    <i name="e_0_energy">    -10.85139283 </i>
   </energy>
  </scstep>
  <scstep>
   <time name="diag">    0.00    0.00</time>
   <time name="diis">    0.00    0.00</time>
   <time name="orth">    0.00    0.00</time>
   <time name="total">    0.00    0.01</time>
   <energy>
    <i name="e_fr_energy">    -10.87353633 </i>
    <i name="e_wo_entrp">    -10.87353633 </i>
    <i name="e_0_energy">    -10.87353633 </i>
   </energy>
  </scstep>
  <scstep>
   <time name="diag">    0.00    0.00</time>
   <time name="diis">    0.00    0.00</time>
   <time name="orth">    0.00    0.00</time>
   <time name="total">    0.01    0.01</time>
   <energy>
    <i name="e_fr_energy">    -10.87554827 </i>
    <i name="e_wo_entrp">    -10.87554827 </i>
    <i name="e_0_energy">    -10.87554827 </i>
   </energy>
  </scstep>
  <scstep>
   <time name="diag">    0.00    0.00</time>
   <time name="diis">    0.00    0.00</time>
   <time name="orth">    0.00    0.00</time>
   <time name="total">    0.01    0.01</time>
   <energy>
    <i name="e_fr_energy">    -10.87563453 </i>
    <i name="e_wo_entrp">    -10.87563453 </i>
    <i name="e_0_energy">    -10.87563453 </i>
   </energy>
  </scstep>
  <scstep>
   <time name="diag">    0.00    0.00</time>
   <time name="diis">    0.00    0.00</time>
   <time name="orth">    0.00    0.00</time>
   <time name="total">    0.01    0.01</time>
   <energy>
    <i name="e_fr_energy">    -10.74706091 </i>
    <i name="e_wo_entrp">    -10.74706091 </i>
    <i name="e_0_energy">    -10.74706091 </i>
   </energy>
  </scstep>
  <scstep>
   <time name="diag">    0.00    0.00</time>
   <time name="diis">    0.00    0.00</time>
   <time name="orth">    0.00    0.00</time>
   <time name="total">    0.01    0.01</time>
   <energy>
    <i name="e_fr_energy">    -10.68837367 </i>
    <i name="e_wo_entrp">    -10.68837367 </i>
    <i name="e_0_energy">    -10.68837367 </i>
   </energy>
  </scstep>
  <scstep>
   <time name="diag">    0.00    0.00</time>
   <time name="diis">    0.00    0.00</time>
   <time name="orth">    0.00    0.00</time>
   <time name="total">    0.01    0.01</time>
   <energy>
    <i name="e_fr_energy">    -10.68981717 </i>
    <i name="e_wo_entrp">    -10.68981717 </i>
    <i name="e_0_energy">    -10.68981717 </i>
   </energy>
  </scstep>
  <scstep>
   <time name="diag">    0.00    0.00</time>
   <time name="diis">    0.00    0.00</time>
   <time name="orth">    0.00    0.00</time>
   <time name="total">    0.01    0.01</time>
   <energy>
    <i name="e_fr_energy">    -10.69008295 </i>
    <i name="e_wo_entrp">    -10.69008295 </i>
    <i name="e_0_energy">    -10.69008295 </i>
   </energy>
  </scstep>
  <scstep>
   <time name="diag">    0.00    0.00</time>
   <time name="diis">    0.00    0.00</time>
   <time name="orth">    0.00    0.00</time>
   <time name="total">    0.01    0.01</time>
   <energy>
    <i name="e_fr_energy">    -10.69011477 </i>
    <i name="e_wo_entrp">    -10.69011477 </i>
    <i name="e_0_energy">    -10.69011477 </i>
   </energy>
  </scstep>
  <scstep>
   <time name="diag">    0.00    0.00</time>
   <time name="diis">    0.00    0.00</time>
   <time name="orth">    0.00    0.00</time>
   <time name="total">    0.01    0.01</time>
   <energy>
    <i name="alphaZ">      3.29371734 </i>
    <i name="ewald">   -226.95723643 </i>
    <i name="hartreedc">    -15.44107224 </i>
    <i name="XCdc">    -18.02406859 </i>
    <i name="pawpsdc">    839.59826309 </i>
    <i name="pawaedc">   -804.62406767 </i>
    <i name="eentropy">     -0.00000000 </i>
    <i name="bandstr">      5.33285728 </i>
    <i name="atom">    206.13149246 </i>
    <i name="e_fr_energy">    -10.69011476 </i>
    <i name="e_wo_entrp">    -10.69011476 </i>
    <i name="e_0_energy">    -10.69011476 </i>
   </energy>
  </scstep>
  <structure>
   <crystal>
    <varray name="basis" >
     <v>       0.00000000       2.73421540       2.73421540 </v>
     <v>       2.73421540       0.00000000       2.73421540 </v>
     <v>       2.73421540       2.73421540       0.00000000 </v>
    </varray>
    <i name="volume">     40.88162679 </i>
    <varray name="rec_basis" >
     <v>      -0.18286782       0.18286782       0.18286782 </v>
     <v>       0.18286782      -0.18286782       0.18286782 </v>
     <v>       0.18286782       0.18286782      -0.18286782 </v>
    </varray>
   </crystal>
   <varray name="positions" >
    <v>       0.00000000       0.00000000       0.00000000 </v>
    <v>       0.25000000       0.25000000       0.25000000 </v>
   </varray>
  </structure>
  <varray name="forces" >
   <v>      -0.00000000      -0.00000000      -0.00000000 </v>
   <v>       0.00000000       0.00000000       0.00000000 </v>
  </varray>
  <varray name="stress" >
   <v>       3.69790362      -0.00000000      -0.00000000 </v>
   <v>       0.00000000       3.69790362      -0.00000000 </v>
   <v>      -0.00000000       0.00000000       3.69790362 </v>
  </varray>
  <energy>
   <i name="e_fr_energy">    -10.69011476 </i>
   <i name="e_wo_entrp">    -10.69011476 </i>
   <i name="e_0_energy">     -0.00000000 </i>
  </energy>
  <time name="totalsc">    0.16    0.18</time>
  <eigenvalues>
   <array>
    <dimension dim="1">band</dimension>
    <dimension dim="2">kpoint</dimension>
    <dimension dim="3">spin</dimension>
    <field>eigene</field>
    <field>occ</field>
    <set>
     <set comment="spin 1">
      <set comment="kpoint 1">
       <r>   -5.3834    1.0000 </r>
       <r>    1.7621    1.0000 </r>
       <r>    4.9057    1.0000 </r>
       <r>    4.9057    1.0000 </r>
       <r>    7.6079    0.0000 </r>
       <r>    9.1307    0.0000 </r>
       <r>    9.1307    0.0000 </r>
       <r>   12.4089    0.0000 </r>
      </set>
      <set comment="kpoint 2">
       <r>   -3.5025    1.0000 </r>
       <r>   -0.6747    1.0000 </r>
       <r>    2.1821    1.0000 </r>
       <r>    3.4870    1.0000 </r>
       <r>    7.1836    0.0000 </r>
       <r>   10.0773    0.0000 </r>
       <r>   11.2963    0.0000 </r>
       <r>   11.5195    0.0000 </r>
      </set>
     </set>
    </set>
   </array>
  </eigenvalues>
  <separator name="orbital magnetization" >
   <v name="MAGDIPOLOUT">      0.00000000      0.00000000      0.00000000</v>
  </separator>
  <dos>
   <i name="efermi">      5.02137966 </i>
   <total>
    <array>
     <dimension dim="1">gridpoints</dimension>
     <dimension dim="2">spin</dimension>
     <field>energy</field>
     <field>total</field>
     <field>integrated</field>
     <set>
      <set comment="spin 1">
       <r>    -6.2731     0.0000     0.0000 </r>
       <r>    -6.2078     0.0000     0.0000 </r>
       <r>    -6.1426     0.0000     0.0000 </r>
       <r>    -6.0773     0.0000     0.0000 </r>
       <r>    -6.0121     0.0000     0.0000 </r>
       <r>    -5.9469     0.0000     0.0000 </r>
       <r>    -5.8816     0.0000     0.0000 </r>
       <r>    -5.8164     0.0000     0.0000 </r>
       <r>    -5.7511     0.0000     0.0000 </r>
       <r>    -5.6859     0.0000     0.0000 </r>
       <r>    -5.6207     0.0000     0.0000 </r>
       <r>    -5.5554     0.0000     0.0000 </r>
       <r>    -5.4902     0.0000     0.0000 </r>
       <r>    -5.4250     0.0128     0.0008 </r>
       <r>    -5.3597     7.2933     0.4766 </r>
       <r>    -5.2945     0.3581     0.5000 </r>
       <r>    -5.2292     0.0000     0.5000 </r>
       <r>    -5.1640     0.0000     0.5000 </r>
       <r>    -5.0988     0.0000     0.5000 </r>
       <r>    -5.0335     0.0000     0.5000 </r>
       <r>    -4.9683     0.0000     0.5000 </r>
       <r>    -4.9030     0.0000     0.5000 </r>
       <r>    -4.8378     0.0000     0.5000 </r>
       <r>    -4.7726     0.0000     0.5000 </r>
       <r>    -4.7073     0.0000     0.5000 </r>
       <r>    -4.6421     0.0000     0.5000 </r>
       <r>    -4.5769     0.0000     0.5000 </r>
       <r>    -4.5116     0.0000     0.5000 </r>
       <r>    -4.4464     0.0000     0.5000 </r>
       <r>    -4.3811     0.0000     0.5000 </r>
       <r>    -4.3159     0.0000     0.5000 </r>
       <r>    -4.2507     0.0000     0.5000 </r>
       <r>    -4.1854     0.0000     0.5000 </r>
       <r>    -4.1202     0.0000     0.5000 </r>
       <r>    -4.0549     0.0000     0.5000 </r>
       <r>    -3.9897     0.0000     0.5000 </r>
       <r>    -3.9245     0.0000     0.5000 </r>
       <r>    -3.8592     0.0000     0.5000 </r>
       <r>    -3.7940     0.0000     0.5000 </r>
       <r>    -3.7288     0.0000     0.5000 </r>
       <r>    -3.6635     0.0000     0.5000 </r>
       <r>    -3.5983     0.0000     0.5000 </r>
       <r>    -3.5330     0.3554     0.5232 </r>
       <r>    -3.4678    22.4751     1.9894 </r>
       <r>    -3.4026     0.1620     2.0000 </r>
       <r>    -3.3373     0.0000     2.0000 </r>
       <r>    -3.2721     0.0000     2.0000 </r>
       <r>    -3.2068     0.0000     2.0000 </r>
       <r>    -3.1416     0.0000     2.0000 </r>
       <r>    -3.0764     0.0000     2.0000 </r>
       <r>    -3.0111     0.0000     2.0000 </r>
       <r>    -2.9459     0.0000     2.0000 </r>
       <r>    -2.8806     0.0000     2.0000 </r>
       <r>    -2.8154     0.0000     2.0000 </r>
       <r>    -2.7502     0.0000     2.0000 </r>
       <r>    -2.6849     0.0000     2.0000 </r>
       <r>    -2.6197     0.0000     2.0000 </r>
       <r>    -2.5545     0.0000     2.0000 </r>
       <r>    -2.4892     0.0000     2.0000 </r>
       <r>    -2.4240     0.0000     2.0000 </r>
       <r>    -2.3587     0.0000     2.0000 </r>
       <r>    -2.2935     0.0000     2.0000 </r>
       <r>    -2.2283     0.0000     2.0000 </r>
       <r>    -2.1630     0.0000     2.0000 </r>
       <r>    -2.0978     0.0000     2.0000 </r>
       <r>    -2.0325     0.0000     2.0000 </r>
       <r>    -1.9673     0.0000     2.0000 </r>
       <r>    -1.9021     0.0000     2.0000 </r>
       <r>    -1.8368     0.0000     2.0000 </r>
       <r>    -1.7716     0.0000     2.0000 </r>
       <r>    -1.7064     0.0000     2.0000 </r>
       <r>    -1.6411     0.0000     2.0000 </r>
       <r>    -1.5759     0.0000     2.0000 </r>
       <r>    -1.5106     0.0000     2.0000 </r>
       <r>    -1.4454     0.0000     2.0000 </r>
       <r>    -1.3802     0.0000     2.0000 </r>
       <r>    -1.3149     0.0000     2.0000 </r>
       <r>    -1.2497     0.0000     2.0000 </r>
       <r>    -1.1844     0.0000     2.0000 </r>
       <r>    -1.1192     0.0000     2.0000 </r>
       <r>    -1.0540     0.0000     2.0000 </r>
       <r>    -0.9887     0.0000     2.0000 </r>
       <r>    -0.9235     0.0000     2.0000 </r>
       <r>    -0.8583     0.0000     2.0000 </r>
       <r>    -0.7930     0.0000     2.0000 </r>
       <r>    -0.7278     0.0020     2.0001 </r>
       <r>    -0.6625    18.5143     3.2080 </r>
       <r>    -0.5973     4.4762     3.5000 </r>
       <r>    -0.5321     0.0000     3.5000 </r>
       <r>    -0.4668     0.0000     3.5000 </r>
       <r>    -0.4016     0.0000     3.5000 </r>
       <r>    -0.3363     0.0000     3.5000 </r>
       <r>    -0.2711     0.0000     3.5000 </r>
       <r>    -0.2059     0.0000     3.5000 </r>
       <r>    -0.1406     0.0000     3.5000 </r>
       <r>    -0.0754     0.0000     3.5000 </r>
       <r>    -0.0101     0.0000     3.5000 </r>
       <r>     0.0551     0.0000     3.5000 </r>
       <r>     0.1203     0.0000     3.5000 </r>
       <r>     0.1856     0.0000     3.5000 </r>
       <r>     0.2508     0.0000     3.5000 </r>
       <r>     0.3160     0.0000     3.5000 </r>
       <r>     0.3813     0.0000     3.5000 </r>
       <r>     0.4465     0.0000     3.5000 </r>
       <r>     0.5118     0.0000     3.5000 </r>
       <r>     0.5770     0.0000     3.5000 </r>
       <r>     0.6422     0.0000     3.5000 </r>
       <r>     0.7075     0.0000     3.5000 </r>
       <r>     0.7727     0.0000     3.5000 </r>
       <r>     0.8380     0.0000     3.5000 </r>
       <r>     0.9032     0.0000     3.5000 </r>
       <r>     0.9684     0.0000     3.5000 </r>
       <r>     1.0337     0.0000     3.5000 </r>
       <r>     1.0989     0.0000     3.5000 </r>
       <r>     1.1641     0.0000     3.5000 </r>
       <r>     1.2294     0.0000     3.5000 </r>
       <r>     1.2946     0.0000     3.5000 </r>
       <r>     1.3599     0.0000     3.5000 </r>
       <r>     1.4251     0.0000     3.5000 </r>
       <r>     1.4903     0.0000     3.5000 </r>
       <r>     1.5556     0.0000     3.5000 </r>
       <r>     1.6208     0.0000     3.5000 </r>
       <r>     1.6861     0.0000     3.5000 </r>
       <r>     1.7513     1.7000     3.6109 </r>
       <r>     1.8165     5.9637     4.0000 </r>
       <r>     1.8818     0.0005     4.0000 </r>
       <r>     1.9470     0.0000     4.0000 </r>
       <r>     2.0122     0.0000     4.0000 </r>
       <r>     2.0775     0.0000     4.0000 </r>
       <r>     2.1427     0.0614     4.0040 </r>
       <r>     2.2080    22.1536     5.4493 </r>
       <r>     2.2732     0.7775     5.5000 </r>
       <r>     2.3384     0.0000     5.5000 </r>
       <r>     2.4037     0.0000     5.5000 </r>
       <r>     2.4689     0.0000     5.5000 </r>
       <r>     2.5342     0.0000     5.5000 </r>
       <r>     2.5994     0.0000     5.5000 </r>
       <r>     2.6646     0.0000     5.5000 </r>
       <r>     2.7299     0.0000     5.5000 </r>
       <r>     2.7951     0.0000     5.5000 </r>
       <r>     2.8604     0.0000     5.5000 </r>
       <r>     2.9256     0.0000     5.5000 </r>
       <r>     2.9908     0.0000     5.5000 </r>
       <r>     3.0561     0.0000     5.5000 </r>
       <r>     3.1213     0.0000     5.5000 </r>
       <r>     3.1865     0.0000     5.5000 </r>
       <r>     3.2518     0.0000     5.5000 </r>
       <r>     3.3170     0.0000     5.5000 </r>
       <r>     3.3823     0.0000     5.5000 </r>
       <r>     3.4475     0.0599     5.5039 </r>
       <r>     3.5127    22.1414     6.9484 </r>
       <r>     3.5780     0.7912     7.0000 </r>
       <r>     3.6432     0.0000     7.0000 </r>
       <r>     3.7085     0.0000     7.0000 </r>
       <r>     3.7737     0.0000     7.0000 </r>
       <r>     3.8389     0.0000     7.0000 </r>
       <r>     3.9042     0.0000     7.0000 </r>
       <r>     3.9694     0.0000     7.0000 </r>
       <r>     4.0346     0.0000     7.0000 </r>
       <r>     4.0999     0.0000     7.0000 </r>
       <r>     4.1651     0.0000     7.0000 </r>
       <r>     4.2304     0.0000     7.0000 </r>
       <r>     4.2956     0.0000     7.0000 </r>
       <r>     4.3608     0.0000     7.0000 </r>
       <r>     4.4261     0.0000     7.0000 </r>
       <r>     4.4913     0.0000     7.0000 </r>
       <r>     4.5566     0.0000     7.0000 </r>
       <r>     4.6218     0.0000     7.0000 </r>
       <r>     4.6870     0.0000     7.0000 </r>
       <r>     4.7523     0.0000     7.0000 </r>
       <r>     4.8175     0.0000     7.0000 </r>
       <r>     4.8827     0.8059     7.0526 </r>
       <r>     4.9480    14.5013     7.9986 </r>
       <r>     5.0132     0.0212     8.0000 </r>
       <r>     5.0785     0.0000     8.0000 </r>
       <r>     5.1437     0.0000     8.0000 </r>
       <r>     5.2089     0.0000     8.0000 </r>
       <r>     5.2742     0.0000     8.0000 </r>
       <r>     5.3394     0.0000     8.0000 </r>
       <r>     5.4047     0.0000     8.0000 </r>
       <r>     5.4699     0.0000     8.0000 </r>
       <r>     5.5351     0.0000     8.0000 </r>
       <r>     5.6004     0.0000     8.0000 </r>
       <r>     5.6656     0.0000     8.0000 </r>
       <r>     5.7308     0.0000     8.0000 </r>
       <r>     5.7961     0.0000     8.0000 </r>
       <r>     5.8613     0.0000     8.0000 </r>
       <r>     5.9266     0.0000     8.0000 </r>
       <r>     5.9918     0.0000     8.0000 </r>
       <r>     6.0570     0.0000     8.0000 </r>
       <r>     6.1223     0.0000     8.0000 </r>
       <r>     6.1875     0.0000     8.0000 </r>
       <r>     6.2528     0.0000     8.0000 </r>
       <r>     6.3180     0.0000     8.0000 </r>
       <r>     6.3832     0.0000     8.0000 </r>
       <r>     6.4485     0.0000     8.0000 </r>
       <r>     6.5137     0.0000     8.0000 </r>
       <r>     6.5790     0.0000     8.0000 </r>
       <r>     6.6442     0.0000     8.0000 </r>
       <r>     6.7094     0.0000     8.0000 </r>
       <r>     6.7747     0.0000     8.0000 </r>
       <r>     6.8399     0.0000     8.0000 </r>
       <r>     6.9051     0.0000     8.0000 </r>
       <r>     6.9704     0.0000     8.0000 </r>
       <r>     7.0356     0.0000     8.0000 </r>
       <r>     7.1009     0.0000     8.0000 </r>
       <r>     7.1661     2.4937     8.1627 </r>
       <r>     7.2313    20.4905     9.4995 </r>
       <r>     7.2966     0.0084     9.5000 </r>
       <r>     7.3618     0.0000     9.5000 </r>
       <r>     7.4271     0.0000     9.5000 </r>
       <r>     7.4923     0.0000     9.5000 </r>
       <r>     7.5575     0.0014     9.5001 </r>
       <r>     7.6228     6.5352     9.9264 </r>
       <r>     7.6880     1.1276    10.0000 </r>
       <r>     7.7532     0.0000    10.0000 </r>
       <r>     7.8185     0.0000    10.0000 </r>
       <r>     7.8837     0.0000    10.0000 </r>
       <r>     7.9490     0.0000    10.0000 </r>
       <r>     8.0142     0.0000    10.0000 </r>
       <r>     8.0794     0.0000    10.0000 </r>
       <r>     8.1447     0.0000    10.0000 </r>
       <r>     8.2099     0.0000    10.0000 </r>
       <r>     8.2752     0.0000    10.0000 </r>
       <r>     8.3404     0.0000    10.0000 </r>
       <r>     8.4056     0.0000    10.0000 </r>
       <r>     8.4709     0.0000    10.0000 </r>
       <r>     8.5361     0.0000    10.0000 </r>
       <r>     8.6013     0.0000    10.0000 </r>
       <r>     8.6666     0.0000    10.0000 </r>
       <r>     8.7318     0.0000    10.0000 </r>
       <r>     8.7971     0.0000    10.0000 </r>
       <r>     8.8623     0.0000    10.0000 </r>
       <r>     8.9275     0.0000    10.0000 </r>
       <r>     8.9928     0.0000    10.0000 </r>
       <r>     9.0580     0.0000    10.0000 </r>
       <r>     9.1233     4.5986    10.3000 </r>
       <r>     9.1885    10.7295    11.0000 </r>
       <r>     9.2537     0.0003    11.0000 </r>
       <r>     9.3190     0.0000    11.0000 </r>
       <r>     9.3842     0.0000    11.0000 </r>
       <r>     9.4495     0.0000    11.0000 </r>
       <r>     9.5147     0.0000    11.0000 </r>
       <r>     9.5799     0.0000    11.0000 </r>
       <r>     9.6452     0.0000    11.0000 </r>
       <r>     9.7104     0.0000    11.0000 </r>
       <r>     9.7756     0.0000    11.0000 </r>
       <r>     9.8409     0.0000    11.0000 </r>
       <r>     9.9061     0.0000    11.0000 </r>
       <r>     9.9714     0.0000    11.0000 </r>
       <r>    10.0366     0.0459    11.0030 </r>
       <r>    10.1018    21.9944    12.4379 </r>
       <r>    10.1671     0.9522    12.5000 </r>
       <r>    10.2323     0.0000    12.5000 </r>
       <r>    10.2976     0.0000    12.5000 </r>
       <r>    10.3628     0.0000    12.5000 </r>
       <r>    10.4280     0.0000    12.5000 </r>
       <r>    10.4933     0.0000    12.5000 </r>
       <r>    10.5585     0.0000    12.5000 </r>
       <r>    10.6237     0.0000    12.5000 </r>
       <r>    10.6890     0.0000    12.5000 </r>
       <r>    10.7542     0.0000    12.5000 </r>
       <r>    10.8195     0.0000    12.5000 </r>
       <r>    10.8847     0.0000    12.5000 </r>
       <r>    10.9499     0.0000    12.5000 </r>
       <r>    11.0152     0.0000    12.5000 </r>
       <r>    11.0804     0.0000    12.5000 </r>
       <r>    11.1457     0.0000    12.5000 </r>
       <r>    11.2109     0.0000    12.5000 </r>
       <r>    11.2761     1.7806    12.6162 </r>
       <r>    11.3414    21.1956    13.9989 </r>
       <r>    11.4066     0.0163    14.0000 </r>
       <r>    11.4718     0.0087    14.0006 </r>
       <r>    11.5371    20.5313    15.3400 </r>
       <r>    11.6023     2.4525    15.5000 </r>
       <r>    11.6676     0.0000    15.5000 </r>
       <r>    11.7328     0.0000    15.5000 </r>
       <r>    11.7980     0.0000    15.5000 </r>
       <r>    11.8633     0.0000    15.5000 </r>
       <r>    11.9285     0.0000    15.5000 </r>
       <r>    11.9938     0.0000    15.5000 </r>
       <r>    12.0590     0.0000    15.5000 </r>
       <r>    12.1242     0.0000    15.5000 </r>
       <r>    12.1895     0.0000    15.5000 </r>
       <r>    12.2547     0.0000    15.5000 </r>
       <r>    12.3200     0.0000    15.5000 </r>
       <r>    12.3852     0.3581    15.5234 </r>
       <r>    12.4504     7.2933    15.9992 </r>
       <r>    12.5157     0.0128    16.0000 </r>
       <r>    12.5809     0.0000    16.0000 </r>
       <r>    12.6461     0.0000    16.0000 </r>
       <r>    12.7114     0.0000    16.0000 </r>
       <r>    12.7766     0.0000    16.0000 </r>
       <r>    12.8419     0.0000    16.0000 </r>
       <r>    12.9071     0.0000    16.0000 </r>
       <r>    12.9723     0.0000    16.0000 </r>
       <r>    13.0376     0.0000    16.0000 </r>
       <r>    13.1028     0.0000    16.0000 </r>
       <r>    13.1681     0.0000    16.0000 </r>
       <r>    13.2333     0.0000    16.0000 </r>
       <r>    13.2985     0.0000    16.0000 </r>
      </set>
     </set>
    </array>
   </total>
  </dos>
 </calculation>
 <structure name="finalpos" >
  <crystal>
   <varray name="basis" >
    <v>       0.00000000       2.73421540       2.73421540 </v>
    <v>       2.73421540       0.00000000       2.73421540 </v>
    <v>       2.73421540       2.73421540       0.00000000 </v>
   </varray>
   <i name="volume">     40.88162679 </i>
   <varray name="rec_basis" >
    <v>      -0.18286782       0.18286782       0.18286782 </v>
    <v>       0.18286782      -0.18286782       0.18286782 </v>
    <v>       0.18286782       0.18286782      -0.18286782 </v>
   </varray>
  </crystal>
  <varray name="positions" >
   <v>       0.00000000       0.00000000       0.00000000 </v>
   <v>       0.25000000       0.25000000       0.25000000 </v>
  </varray>
 </structure>
</modeling>
