unknown system                          
           1
     0.000000    2.734215    2.734215
     2.734215    0.000000    2.734215
     2.734215    2.734215    0.000000
   Si
   2
Direct configuration=     1
   0.00000000  0.00000000  0.00000000
   0.25000000  0.25000000  0.25000000
