<?xml version="1.0" encoding="ISO-8859-1"?>
<modeling>
 <generator>
  <i name="program" type="string">vasp </i>
  <i name="version" type="string">5.3.5  </i>
  <i name="subversion" type="string">31Mar14 (build Oct 05 2015 11:49:38) complex                          parallel </i>
  <i name="platform" type="string">EXABYTE </i>
  <i name="date" type="string">2020 10 12 </i>
  <i name="time" type="string">06:00:21 </i>
 </generator>
 <incar>
  <i type="string" name="SYSTEM">  Si</i>
  <i type="string" name="PREC">normal</i>
  <i type="int" name="ISMEAR">     0</i>
  <i name="SIGMA">      0.05000000</i>
  <i type="logical" name="LWAVE"> F  </i>
  <i type="logical" name="LCHARG"> F  </i>
 </incar>
 <kpoints>
  <generation param="Gamma">
   <v type="int" name="divisions">       2        2        2 </v>
   <v name="usershift">      0.00000000       0.00000000       0.00000000 </v>
   <v name="genvec1">      0.50000000       0.00000000       0.00000000 </v>
   <v name="genvec2">      0.00000000       0.50000000       0.00000000 </v>
   <v name="genvec3">      0.00000000       0.00000000       0.50000000 </v>
   <v name="shift">      0.00000000       0.00000000       0.00000000 </v>
  </generation>
  <varray name="kpointlist" >
   <v>       0.00000000       0.00000000       0.00000000 </v>
   <v>       0.50000000       0.00000000       0.00000000 </v>
   <v>       0.50000000       0.50000000       0.00000000 </v>
  </varray>
  <varray name="weights" >
   <v>       0.12500000 </v>
   <v>       0.50000000 </v>
   <v>       0.37500000 </v>
  </varray>
 </kpoints>
 <parameters>
  <separator name="general" >
   <i type="string" name="SYSTEM">Si</i>
   <i type="logical" name="LCOMPAT"> F  </i>
  </separator>
  <separator name="electronic" >
   <i type="string" name="PREC">normal</i>
   <i name="ENMAX">    245.34500000</i>
   <i name="ENAUG">    322.06900000</i>
   <i name="EDIFF">      0.00010000</i>
   <i type="int" name="IALGO">    38</i>
   <i type="int" name="IWAVPR">    10</i>
   <i type="int" name="NBANDS">     8</i>
   <i name="NELECT">      8.00000000</i>
   <i type="int" name="TURBO">     0</i>
   <i type="int" name="IRESTART">     0</i>
   <i type="int" name="NREBOOT">     0</i>
   <i type="int" name="NMIN">     0</i>
   <i name="EREF">      0.00000000</i>
   <separator name="electronic smearing" >
    <i type="int" name="ISMEAR">     0</i>
    <i name="SIGMA">      0.05000000</i>
    <i name="KSPACING">      0.50000000</i>
    <i type="logical" name="KGAMMA"> T  </i>
   </separator>
   <separator name="electronic projectors" >
    <i type="logical" name="LREAL"> F  </i>
    <v name="ROPT">      0.00000000</v>
    <i type="int" name="LMAXPAW">  -100</i>
    <i type="int" name="LMAXMIX">     2</i>
    <i type="logical" name="NLSPLINE"> F  </i>
   </separator>
   <separator name="electronic startup" >
    <i type="int" name="ISTART">     0</i>
    <i type="int" name="ICHARG">     2</i>
    <i type="int" name="INIWAV">     1</i>
   </separator>
   <separator name="electronic spin" >
    <i type="int" name="ISPIN">     1</i>
    <i type="logical" name="LNONCOLLINEAR"> F  </i>
    <v name="MAGMOM">      1.00000000      1.00000000</v>
    <i name="NUPDOWN">     -1.00000000</i>
    <i type="logical" name="LSORBIT"> F  </i>
    <v name="SAXIS">      0.00000000      0.00000000      1.00000000</v>
    <i type="logical" name="LSPIRAL"> F  </i>
    <v name="QSPIRAL">      0.00000000      0.00000000      0.00000000</v>
    <i type="logical" name="LZEROZ"> F  </i>
   </separator>
   <separator name="electronic exchange-correlation" >
    <i type="logical" name="LASPH"> F  </i>
    <i type="logical" name="LMETAGGA"> F  </i>
   </separator>
   <separator name="electronic convergence" >
    <i type="int" name="NELM">    60</i>
    <i type="int" name="NELMDL">    -5</i>
    <i type="int" name="NELMIN">     2</i>
    <i name="ENINI">    245.34500000</i>
    <separator name="electronic convergence detail" >
     <i type="logical" name="LDIAG"> T  </i>
     <i type="logical" name="LSUBROT"> F  </i>
     <i name="WEIMIN">      0.00000000</i>
     <i name="EBREAK">      0.00000313</i>
     <i name="DEPER">      0.30000000</i>
     <i type="int" name="NRMM">     4</i>
     <i name="TIME">      0.40000000</i>
    </separator>
   </separator>
   <separator name="electronic mixer" >
    <i name="AMIX">      0.40000000</i>
    <i name="BMIX">      1.00000000</i>
    <i name="AMIN">      0.10000000</i>
    <i name="AMIX_MAG">      1.60000000</i>
    <i name="BMIX_MAG">      1.00000000</i>
    <separator name="electronic mixer details" >
     <i type="int" name="IMIX">     4</i>
     <i type="int" name="MAXMIX">   -45</i>
     <i name="WC">    100.00000000</i>
     <i type="int" name="INIMIX">     1</i>
     <i type="int" name="MIXPRE">     1</i>
     <i type="int" name="MREMOVE">     5</i>
    </separator>
   </separator>
   <separator name="electronic dipolcorrection" >
    <i type="logical" name="LDIPOL"> F  </i>
    <i type="logical" name="LMONO"> F  </i>
    <i type="int" name="IDIPOL">     0</i>
    <i name="EPSILON">      1.00000000</i>
    <v name="DIPOL">   -100.00000000   -100.00000000   -100.00000000</v>
    <i name="EFIELD">      0.00000000</i>
   </separator>
  </separator>
  <separator name="grids" >
   <i type="int" name="NGX">    16</i>
   <i type="int" name="NGY">    16</i>
   <i type="int" name="NGZ">    16</i>
   <i type="int" name="NGXF">    32</i>
   <i type="int" name="NGYF">    32</i>
   <i type="int" name="NGZF">    32</i>
   <i type="logical" name="ADDGRID"> F  </i>
  </separator>
  <separator name="ionic" >
   <i type="int" name="NSW">     0</i>
   <i type="int" name="IBRION">    -1</i>
   <i type="int" name="ISIF">     2</i>
   <i name="PSTRESS">      0.00000000</i>
   <i name="EDIFFG">      0.00100000</i>
   <i type="int" name="NFREE">     0</i>
   <i name="POTIM">      0.50000000</i>
   <i name="SMASS">     -3.00000000</i>
   <i name="SCALEE">      1.00000000</i>
  </separator>
  <separator name="ionic md" >
   <i name="TEBEG">      0.00010000</i>
   <i name="TEEND">      0.00010000</i>
   <i type="int" name="NBLOCK">     1</i>
   <i type="int" name="KBLOCK">     1</i>
   <i type="int" name="NPACO">   256</i>
   <i name="APACO">     16.00000000</i>
  </separator>
  <separator name="symmetry" >
   <i type="int" name="ISYM">     2</i>
   <i name="SYMPREC">      0.00001000</i>
  </separator>
  <separator name="dos" >
   <i type="logical" name="LORBIT"> F  </i>
   <v name="RWIGS">     -1.00000000</v>
   <i type="int" name="NEDOS">   301</i>
   <i name="EMIN">     10.00000000</i>
   <i name="EMAX">    -10.00000000</i>
   <i name="EFERMI">      0.00000000</i>
  </separator>
  <separator name="writing" >
   <i type="int" name="NWRITE">     2</i>
   <i type="logical" name="LWAVE"> F  </i>
   <i type="logical" name="LCHARG"> F  </i>
   <i type="logical" name="LPARD"> F  </i>
   <i type="logical" name="LVTOT"> F  </i>
   <i type="logical" name="LVHAR"> F  </i>
   <i type="logical" name="LELF"> F  </i>
   <i type="logical" name="LOPTICS"> F  </i>
   <v name="STM">      0.00000000      0.00000000      0.00000000      0.00000000      0.00000000      0.00000000      0.00000000</v>
  </separator>
  <separator name="performance" >
   <i type="int" name="NPAR">     2</i>
   <i type="int" name="NSIM">     4</i>
   <i type="int" name="NBLK">    -1</i>
   <i type="logical" name="LPLANE"> T  </i>
   <i type="logical" name="LSCALAPACK"> T  </i>
   <i type="logical" name="LSCAAWARE"> F  </i>
   <i type="logical" name="LSCALU"> F  </i>
   <i type="logical" name="LASYNC"> F  </i>
   <i type="logical" name="LORBITALREAL"> F  </i>
  </separator>
  <separator name="miscellaneous" >
   <i type="int" name="IDIOT">     3</i>
   <i type="logical" name="LMUSIC"> F  </i>
   <v name="POMASS">     28.08500000</v>
   <v name="DARWINR">      0.00000000</v>
   <v name="DARWINV">      1.00000000</v>
   <i type="logical" name="LCORR"> T  </i>
  </separator>
  <i type="logical" name="GGA_COMPAT"> T  </i>
  <i type="logical" name="LBERRY"> F  </i>
  <i type="int" name="ICORELEVEL">     0</i>
  <i type="logical" name="LDAU"> F  </i>
  <i type="int" name="I_CONSTRAINED_M">     0</i>
  <separator name="electronic exchange-correlation" >
   <i type="string" name="GGA">--</i>
   <i type="int" name="VOSKOWN">     0</i>
   <i type="logical" name="LHFCALC"> F  </i>
   <i type="string" name="PRECFOCK"></i>
   <i type="logical" name="LSYMGRAD"> F  </i>
   <i type="logical" name="LHFONE"> F  </i>
   <i type="logical" name="LRHFCALC"> F  </i>
   <i type="logical" name="LTHOMAS"> F  </i>
   <i type="logical" name="LMODELHF"> F  </i>
   <i name="ENCUT4O">     -1.00000000</i>
   <i type="int" name="EXXOEP">     0</i>
   <i type="int" name="FOURORBIT">     0</i>
   <i name="AEXX">      0.00000000</i>
   <i name="HFALPHA">      0.00000000</i>
   <i name="MCALPHA">      0.00000000</i>
   <i name="ALDAX">      1.00000000</i>
   <i name="AGGAX">      1.00000000</i>
   <i name="ALDAC">      1.00000000</i>
   <i name="AGGAC">      1.00000000</i>
   <i type="int" name="NKREDX">     1</i>
   <i type="int" name="NKREDY">     1</i>
   <i type="int" name="NKREDZ">     1</i>
   <i type="logical" name="SHIFTRED"> F  </i>
   <i type="logical" name="ODDONLY"> F  </i>
   <i type="logical" name="EVENONLY"> F  </i>
   <i type="int" name="LMAXFOCK">     0</i>
   <i type="int" name="NMAXFOCKAE">     0</i>
   <i type="logical" name="LFOCKAEDFT"> F  </i>
   <i name="HFSCREEN">      0.00000000</i>
   <i name="HFSCREENC">      0.00000000</i>
   <i type="int" name="NBANDSGWLOW">     0</i>
  </separator>
  <separator name="vdW DFT" >
   <i type="logical" name="LUSE_VDW"> F  </i>
   <i name="Zab_VDW">     -0.84910000</i>
   <i name="PARAM1">      0.12340000</i>
   <i name="PARAM2">      1.00000000</i>
   <i name="PARAM3">      0.00000000</i>
  </separator>
  <separator name="model GW" >
   <i type="int" name="MODEL_GW">     0</i>
   <i name="MODEL_EPS0">     12.26672906</i>
   <i name="MODEL_ALPHA">      1.00000000</i>
  </separator>
  <separator name="linear response parameters" >
   <i type="logical" name="LEPSILON"> F  </i>
   <i type="logical" name="LRPA"> F  </i>
   <i type="logical" name="LNABLA"> F  </i>
   <i type="logical" name="LVEL"> F  </i>
   <i type="int" name="KINTER">     0</i>
   <i name="CSHIFT">      0.10000000</i>
   <i name="OMEGAMAX">     -1.00000000</i>
   <i name="DEG_THRESHOLD">      0.00200000</i>
  </separator>
  <separator name="orbital magnetization" >
   <i type="logical" name="NUCIND"> F  </i>
   <v name="MAGPOS">      0.00000000      0.00000000      0.00000000</v>
   <i type="logical" name="LNICSALL"> T  </i>
   <i type="logical" name="ORBITALMAG"> F  </i>
   <i type="logical" name="LMAGBLOCH"> F  </i>
   <i type="logical" name="LCHIMAG"> F  </i>
   <i type="logical" name="LGAUGE"> T  </i>
   <i type="int" name="MAGATOM">     0</i>
   <v name="MAGDIPOL">      0.00000000      0.00000000      0.00000000</v>
   <v name="AVECCONST">      0.00000000      0.00000000      0.00000000</v>
  </separator>
  <separator name="response functions" >
   <i type="logical" name="LADDER"> F  </i>
   <i type="logical" name="LFXC"> F  </i>
   <i type="logical" name="LHARTREE"> T  </i>
   <i type="int" name="IBSE">     0</i>
   <i type="logical" name="LTCTE"> F  </i>
   <i type="logical" name="LTETE"> F  </i>
   <i type="logical" name="LTRIPLET"> F  </i>
   <i type="logical" name="LFXCEPS"> F  </i>
   <i type="logical" name="LFXHEG"> F  </i>
   <i type="logical" name="L2ORDER"> F  </i>
   <i type="logical" name="LUSEW"> F  </i>
   <i name="ENCUTGW">     -2.00000000</i>
   <i name="ENCUTGWSOFT">     -2.00000000</i>
   <i name="ENCUTLF">     -1.00000000</i>
   <i type="int" name="LMAXMP2">    -1</i>
   <i name="SCISSOR">      0.00000000</i>
   <i type="int" name="NOMEGA">     0</i>
   <i type="int" name="NOMEGAR">     0</i>
   <i type="int" name="NBANDSGW">    -1</i>
   <i type="int" name="NBANDSO">    -1</i>
   <i type="int" name="NBANDSV">    -1</i>
   <i type="int" name="NELM">     1</i>
   <i type="int" name="DIM">     3</i>
   <i type="int" name="ANTIRES">     0</i>
   <i name="OMEGAMAX">    -30.00000000</i>
   <i name="OMEGAMIN">    -30.00000000</i>
   <i name="OMEGATL">   -200.00000000</i>
   <i type="int" name="OMEGAGRID">     0</i>
   <i name="CSHIFT">     -0.10000000</i>
   <i type="logical" name="SELFENERGY"> F  </i>
   <i type="logical" name="LSPECTRAL"> F  </i>
   <i type="logical" name="ODDONLYGW"> F  </i>
   <i type="logical" name="EVENONLYGW"> F  </i>
   <i type="int" name="NKREDLFX">     1</i>
   <i type="int" name="NKREDLFY">     1</i>
   <i type="int" name="NKREDLFZ">     1</i>
   <i type="int" name="MAXMEM">  1800</i>
   <i type="int" name="TELESCOPE">     0</i>
   <i type="int" name="TAUPAR">     1</i>
  </separator>
  <separator name="External order field" >
   <i name="OFIELD_KAPPA">      0.00000000</i>
   <v name="OFIELD_K">      0.00000000      0.00000000      0.00000000</v>
   <i name="OFIELD_Q6_NEAR">      0.00000000</i>
   <i name="OFIELD_Q6_FAR">      0.00000000</i>
   <i name="OFIELD_A">      0.00000000</i>
  </separator>
 </parameters>
 <atominfo>
  <atoms>       2 </atoms>
  <types>       1 </types>
  <array name="atoms" >
   <dimension dim="1">ion</dimension>
   <field type="string">element</field>
   <field type="int">atomtype</field>
   <set>
    <rc><c>Si</c><c>   1</c></rc>
    <rc><c>Si</c><c>   1</c></rc>
   </set>
  </array>
  <array name="atomtypes" >
   <dimension dim="1">type</dimension>
   <field type="int">atomspertype</field>
   <field type="string">element</field>
   <field>mass</field>
   <field>valence</field>
   <field type="string">pseudopotential</field>
   <set>
    <rc><c>   2</c><c>Si</c><c>     28.08500000</c><c>      4.00000000</c><c>  PAW_PBE Si 05Jan2001                  </c></rc>
   </set>
  </array>
 </atominfo>
 <structure name="initialpos" >
  <crystal>
   <varray name="basis" >
    <v>       3.86700000       0.00000000       0.00000000 </v>
    <v>       1.93350000       3.34892024       0.00000000 </v>
    <v>       1.93350000       1.11630674       3.15739228 </v>
   </varray>
   <i name="volume">     40.88909687 </i>
   <varray name="rec_basis" >
    <v>       0.25859840      -0.14930185      -0.10557235 </v>
    <v>       0.00000000       0.29860371      -0.10557235 </v>
    <v>       0.00000000       0.00000000       0.31671706 </v>
   </varray>
  </crystal>
  <varray name="positions" >
   <v>       0.00000000       0.00000000       0.00000000 </v>
   <v>       0.25000000       0.25000000       0.25000000 </v>
  </varray>
 </structure>
 <calculation>
  <scstep>
   <time name="dav">    0.01    0.03</time>
   <time name="total">    0.02    0.04</time>
   <energy>
    <i name="alphaZ">      3.29311561 </i>
    <i name="ewald">   -226.94341454 </i>
    <i name="hartreedc">    -11.32368849 </i>
    <i name="XCdc">    -18.68519582 </i>
    <i name="pawpsdc">    176.24759923 </i>
    <i name="pawaedc">   -141.06103558 </i>
    <i name="eentropy">     -0.01390126 </i>
    <i name="bandstr">     14.90783503 </i>
    <i name="atom">    206.12257231 </i>
    <i name="e_fr_energy">      2.54388649 </i>
    <i name="e_wo_entrp">      2.55778775 </i>
    <i name="e_0_energy">      2.55083712 </i>
   </energy>
  </scstep>
  <scstep>
   <time name="dav">    0.01    0.01</time>
   <time name="total">    0.01    0.01</time>
   <energy>
    <i name="e_fr_energy">     -8.53229991 </i>
    <i name="e_wo_entrp">     -8.53229991 </i>
    <i name="e_0_energy">     -8.53229991 </i>
   </energy>
  </scstep>
  <scstep>
   <time name="dav">    0.01    0.01</time>
   <time name="total">    0.01    0.01</time>
   <energy>
    <i name="e_fr_energy">     -8.65826883 </i>
    <i name="e_wo_entrp">     -8.65826883 </i>
    <i name="e_0_energy">     -8.65826883 </i>
   </energy>
  </scstep>
  <scstep>
   <time name="dav">    0.01    0.01</time>
   <time name="total">    0.01    0.01</time>
   <energy>
    <i name="e_fr_energy">     -8.65881138 </i>
    <i name="e_wo_entrp">     -8.65881138 </i>
    <i name="e_0_energy">     -8.65881138 </i>
   </energy>
  </scstep>
  <scstep>
   <time name="dav">    0.01    0.01</time>
   <time name="total">    0.01    0.01</time>
   <energy>
    <i name="e_fr_energy">     -8.65881162 </i>
    <i name="e_wo_entrp">     -8.65881162 </i>
    <i name="e_0_energy">     -8.65881162 </i>
   </energy>
  </scstep>
  <scstep>
   <time name="dav">    0.01    0.01</time>
   <time name="total">    0.02    0.62</time>
   <energy>
    <i name="e_fr_energy">     -8.41206259 </i>
    <i name="e_wo_entrp">     -8.41206259 </i>
    <i name="e_0_energy">     -8.41206259 </i>
   </energy>
  </scstep>
  <scstep>
   <time name="dav">    0.01    0.01</time>
   <time name="total">    0.02    0.90</time>
   <energy>
    <i name="e_fr_energy">     -8.30623000 </i>
    <i name="e_wo_entrp">     -8.30623000 </i>
    <i name="e_0_energy">     -8.30623000 </i>
   </energy>
  </scstep>
  <scstep>
   <time name="dav">    0.01    0.01</time>
   <time name="total">    0.02    0.02</time>
   <energy>
    <i name="e_fr_energy">     -8.31138303 </i>
    <i name="e_wo_entrp">     -8.31138303 </i>
    <i name="e_0_energy">     -8.31138303 </i>
   </energy>
  </scstep>
  <scstep>
   <time name="dav">    0.01    0.01</time>
   <time name="total">    0.02    0.37</time>
   <energy>
    <i name="e_fr_energy">     -8.31247116 </i>
    <i name="e_wo_entrp">     -8.31247116 </i>
    <i name="e_0_energy">     -8.31247116 </i>
   </energy>
  </scstep>
  <scstep>
   <time name="dav">    0.01    0.01</time>
   <time name="total">    0.02    0.02</time>
   <energy>
    <i name="e_fr_energy">     -8.31258033 </i>
    <i name="e_wo_entrp">     -8.31258033 </i>
    <i name="e_0_energy">     -8.31258033 </i>
   </energy>
  </scstep>
  <scstep>
   <time name="dav">    0.00    0.00</time>
   <time name="total">    0.01    0.02</time>
   <energy>
    <i name="alphaZ">      3.29311561 </i>
    <i name="ewald">   -226.94341454 </i>
    <i name="hartreedc">    -17.44062530 </i>
    <i name="XCdc">    -17.77495468 </i>
    <i name="pawpsdc">   1090.17684642 </i>
    <i name="pawaedc">  -1055.26013275 </i>
    <i name="eentropy">     -0.00000000 </i>
    <i name="bandstr">      9.51401030 </i>
    <i name="atom">    206.12257231 </i>
    <i name="e_fr_energy">     -8.31258263 </i>
    <i name="e_wo_entrp">     -8.31258263 </i>
    <i name="e_0_energy">     -8.31258263 </i>
   </energy>
  </scstep>
  <structure>
   <crystal>
    <varray name="basis" >
     <v>       3.86700000       0.00000000       0.00000000 </v>
     <v>       1.93350000       3.34892024       0.00000000 </v>
     <v>       1.93350000       1.11630674       3.15739228 </v>
    </varray>
    <i name="volume">     40.88909687 </i>
    <varray name="rec_basis" >
     <v>       0.25859840      -0.14930185      -0.10557235 </v>
     <v>       0.00000000       0.29860371      -0.10557235 </v>
     <v>       0.00000000       0.00000000       0.31671706 </v>
    </varray>
   </crystal>
   <varray name="positions" >
    <v>       0.00000000       0.00000000       0.00000000 </v>
    <v>       0.25000000       0.25000000       0.25000000 </v>
   </varray>
  </structure>
  <varray name="forces" >
   <v>      -0.00000000      -0.00000000      -0.00000000 </v>
   <v>       0.00000000       0.00000000       0.00000000 </v>
  </varray>
  <varray name="stress" >
   <v>      72.35939031      -0.00000000       0.00000000 </v>
   <v>      -0.00000000      72.35939029      -0.00000001 </v>
   <v>       0.00000000      -0.00000001      72.35939029 </v>
  </varray>
  <energy>
   <i name="e_fr_energy">     -8.31258263 </i>
   <i name="e_wo_entrp">     -8.31258263 </i>
   <i name="e_0_energy">     -0.00000000 </i>
  </energy>
  <time name="totalsc">    0.19    2.06</time>
  <eigenvalues>
   <array>
    <dimension dim="1">band</dimension>
    <dimension dim="2">kpoint</dimension>
    <dimension dim="3">spin</dimension>
    <field>eigene</field>
    <field>occ</field>
    <set>
     <set comment="spin 1">
      <set comment="kpoint 1">
       <r>   -5.9523    1.0000 </r>
       <r>    5.9280    1.0000 </r>
       <r>    5.9280    1.0000 </r>
       <r>    5.9280    1.0000 </r>
       <r>    8.3685    0.0000 </r>
       <r>    8.3686    0.0000 </r>
       <r>    8.3686    0.0000 </r>
       <r>    9.0751    0.0000 </r>
      </set>
      <set comment="kpoint 2">
       <r>   -3.6546    1.0000 </r>
       <r>   -1.0173    1.0000 </r>
       <r>    4.7140    1.0000 </r>
       <r>    4.7140    1.0000 </r>
       <r>    7.3540    0.0000 </r>
       <r>    9.1545    0.0000 </r>
       <r>    9.1545    0.0000 </r>
       <r>   13.5484    0.0000 </r>
      </set>
      <set comment="kpoint 3">
       <r>   -1.8613    1.0000 </r>
       <r>   -1.8613    1.0000 </r>
       <r>    3.0613    1.0000 </r>
       <r>    3.0613    1.0000 </r>
       <r>    6.5789    0.0000 </r>
       <r>    6.5789    0.0000 </r>
       <r>   15.8186    0.0000 </r>
       <r>   15.8186    0.0000 </r>
      </set>
     </set>
    </set>
   </array>
  </eigenvalues>
  <separator name="orbital magnetization" >
   <v name="MAGDIPOLOUT">      0.00000000      0.00000000      0.00000000</v>
  </separator>
  <dos>
   <i name="efermi">      6.21538384 </i>
   <total>
    <array>
     <dimension dim="1">gridpoints</dimension>
     <dimension dim="2">spin</dimension>
     <field>energy</field>
     <field>total</field>
     <field>integrated</field>
     <set>
      <set comment="spin 1">
       <r>    -7.0408     0.0000     0.0000 </r>
       <r>    -6.9610     0.0000     0.0000 </r>
       <r>    -6.8812     0.0000     0.0000 </r>
       <r>    -6.8013     0.0000     0.0000 </r>
       <r>    -6.7215     0.0000     0.0000 </r>
       <r>    -6.6417     0.0000     0.0000 </r>
       <r>    -6.5619     0.0000     0.0000 </r>
       <r>    -6.4820     0.0000     0.0000 </r>
       <r>    -6.4022     0.0000     0.0000 </r>
       <r>    -6.3224     0.0000     0.0000 </r>
       <r>    -6.2426     0.0000     0.0000 </r>
       <r>    -6.1627     0.0000     0.0000 </r>
       <r>    -6.0829     0.0003     0.0000 </r>
       <r>    -6.0031     0.2358     0.0188 </r>
       <r>    -5.9232     2.2511     0.1985 </r>
       <r>    -5.8434     0.6413     0.2497 </r>
       <r>    -5.7636     0.0033     0.2500 </r>
       <r>    -5.6838     0.0000     0.2500 </r>
       <r>    -5.6039     0.0000     0.2500 </r>
       <r>    -5.5241     0.0000     0.2500 </r>
       <r>    -5.4443     0.0000     0.2500 </r>
       <r>    -5.3645     0.0000     0.2500 </r>
       <r>    -5.2846     0.0000     0.2500 </r>
       <r>    -5.2048     0.0000     0.2500 </r>
       <r>    -5.1250     0.0000     0.2500 </r>
       <r>    -5.0452     0.0000     0.2500 </r>
       <r>    -4.9653     0.0000     0.2500 </r>
       <r>    -4.8855     0.0000     0.2500 </r>
       <r>    -4.8057     0.0000     0.2500 </r>
       <r>    -4.7258     0.0000     0.2500 </r>
       <r>    -4.6460     0.0000     0.2500 </r>
       <r>    -4.5662     0.0000     0.2500 </r>
       <r>    -4.4864     0.0000     0.2500 </r>
       <r>    -4.4065     0.0000     0.2500 </r>
       <r>    -4.3267     0.0000     0.2500 </r>
       <r>    -4.2469     0.0000     0.2500 </r>
       <r>    -4.1671     0.0000     0.2500 </r>
       <r>    -4.0872     0.0000     0.2500 </r>
       <r>    -4.0074     0.0000     0.2500 </r>
       <r>    -3.9276     0.0000     0.2500 </r>
       <r>    -3.8478     0.0000     0.2500 </r>
       <r>    -3.7679     0.0085     0.2507 </r>
       <r>    -3.6881     2.1427     0.4217 </r>
       <r>    -3.6083     9.1856     1.1550 </r>
       <r>    -3.5285     1.1881     1.2498 </r>
       <r>    -3.4486     0.0023     1.2500 </r>
       <r>    -3.3688     0.0000     1.2500 </r>
       <r>    -3.2890     0.0000     1.2500 </r>
       <r>    -3.2091     0.0000     1.2500 </r>
       <r>    -3.1293     0.0000     1.2500 </r>
       <r>    -3.0495     0.0000     1.2500 </r>
       <r>    -2.9697     0.0000     1.2500 </r>
       <r>    -2.8898     0.0000     1.2500 </r>
       <r>    -2.8100     0.0000     1.2500 </r>
       <r>    -2.7302     0.0000     1.2500 </r>
       <r>    -2.6504     0.0000     1.2500 </r>
       <r>    -2.5705     0.0000     1.2500 </r>
       <r>    -2.4907     0.0000     1.2500 </r>
       <r>    -2.4109     0.0000     1.2500 </r>
       <r>    -2.3311     0.0000     1.2500 </r>
       <r>    -2.2512     0.0000     1.2500 </r>
       <r>    -2.1714     0.0000     1.2500 </r>
       <r>    -2.0916     0.0000     1.2500 </r>
       <r>    -2.0117     0.0002     1.2500 </r>
       <r>    -1.9319     0.4302     1.2844 </r>
       <r>    -1.8521    10.8974     2.1543 </r>
       <r>    -1.7723     7.3522     2.7412 </r>
       <r>    -1.6924     0.1107     2.7500 </r>
       <r>    -1.6126     0.0000     2.7500 </r>
       <r>    -1.5328     0.0000     2.7500 </r>
       <r>    -1.4530     0.0000     2.7500 </r>
       <r>    -1.3731     0.0000     2.7500 </r>
       <r>    -1.2933     0.0000     2.7500 </r>
       <r>    -1.2135     0.0000     2.7500 </r>
       <r>    -1.1337     0.0063     2.7505 </r>
       <r>    -1.0538     1.8822     2.9007 </r>
       <r>    -0.9740     9.2562     3.6396 </r>
       <r>    -0.8942     1.3794     3.7498 </r>
       <r>    -0.8143     0.0031     3.7500 </r>
       <r>    -0.7345     0.0000     3.7500 </r>
       <r>    -0.6547     0.0000     3.7500 </r>
       <r>    -0.5749     0.0000     3.7500 </r>
       <r>    -0.4950     0.0000     3.7500 </r>
       <r>    -0.4152     0.0000     3.7500 </r>
       <r>    -0.3354     0.0000     3.7500 </r>
       <r>    -0.2556     0.0000     3.7500 </r>
       <r>    -0.1757     0.0000     3.7500 </r>
       <r>    -0.0959     0.0000     3.7500 </r>
       <r>    -0.0161     0.0000     3.7500 </r>
       <r>     0.0637     0.0000     3.7500 </r>
       <r>     0.1436     0.0000     3.7500 </r>
       <r>     0.2234     0.0000     3.7500 </r>
       <r>     0.3032     0.0000     3.7500 </r>
       <r>     0.3831     0.0000     3.7500 </r>
       <r>     0.4629     0.0000     3.7500 </r>
       <r>     0.5427     0.0000     3.7500 </r>
       <r>     0.6225     0.0000     3.7500 </r>
       <r>     0.7024     0.0000     3.7500 </r>
       <r>     0.7822     0.0000     3.7500 </r>
       <r>     0.8620     0.0000     3.7500 </r>
       <r>     0.9418     0.0000     3.7500 </r>
       <r>     1.0217     0.0000     3.7500 </r>
       <r>     1.1015     0.0000     3.7500 </r>
       <r>     1.1813     0.0000     3.7500 </r>
       <r>     1.2611     0.0000     3.7500 </r>
       <r>     1.3410     0.0000     3.7500 </r>
       <r>     1.4208     0.0000     3.7500 </r>
       <r>     1.5006     0.0000     3.7500 </r>
       <r>     1.5805     0.0000     3.7500 </r>
       <r>     1.6603     0.0000     3.7500 </r>
       <r>     1.7401     0.0000     3.7500 </r>
       <r>     1.8199     0.0000     3.7500 </r>
       <r>     1.8998     0.0000     3.7500 </r>
       <r>     1.9796     0.0000     3.7500 </r>
       <r>     2.0594     0.0000     3.7500 </r>
       <r>     2.1392     0.0000     3.7500 </r>
       <r>     2.2191     0.0000     3.7500 </r>
       <r>     2.2989     0.0000     3.7500 </r>
       <r>     2.3787     0.0000     3.7500 </r>
       <r>     2.4585     0.0000     3.7500 </r>
       <r>     2.5384     0.0000     3.7500 </r>
       <r>     2.6182     0.0000     3.7500 </r>
       <r>     2.6980     0.0000     3.7500 </r>
       <r>     2.7779     0.0000     3.7500 </r>
       <r>     2.8577     0.0000     3.7500 </r>
       <r>     2.9375     0.0043     3.7503 </r>
       <r>     3.0173     2.0006     3.9101 </r>
       <r>     3.0972    13.8658     5.0169 </r>
       <r>     3.1770     2.9099     5.2492 </r>
       <r>     3.2568     0.0101     5.2500 </r>
       <r>     3.3366     0.0000     5.2500 </r>
       <r>     3.4165     0.0000     5.2500 </r>
       <r>     3.4963     0.0000     5.2500 </r>
       <r>     3.5761     0.0000     5.2500 </r>
       <r>     3.6559     0.0000     5.2500 </r>
       <r>     3.7358     0.0000     5.2500 </r>
       <r>     3.8156     0.0000     5.2500 </r>
       <r>     3.8954     0.0000     5.2500 </r>
       <r>     3.9752     0.0000     5.2500 </r>
       <r>     4.0551     0.0000     5.2500 </r>
       <r>     4.1349     0.0000     5.2500 </r>
       <r>     4.2147     0.0000     5.2500 </r>
       <r>     4.2946     0.0000     5.2500 </r>
       <r>     4.3744     0.0000     5.2500 </r>
       <r>     4.4542     0.0000     5.2500 </r>
       <r>     4.5340     0.0000     5.2500 </r>
       <r>     4.6139     0.0580     5.2546 </r>
       <r>     4.6937     7.0352     5.8162 </r>
       <r>     4.7735    16.8069     7.1579 </r>
       <r>     4.8533     1.1532     7.2499 </r>
       <r>     4.9332     0.0010     7.2500 </r>
       <r>     5.0130     0.0000     7.2500 </r>
       <r>     5.0928     0.0000     7.2500 </r>
       <r>     5.1726     0.0000     7.2500 </r>
       <r>     5.2525     0.0000     7.2500 </r>
       <r>     5.3323     0.0000     7.2500 </r>
       <r>     5.4121     0.0000     7.2500 </r>
       <r>     5.4920     0.0000     7.2500 </r>
       <r>     5.5718     0.0000     7.2500 </r>
       <r>     5.6516     0.0000     7.2500 </r>
       <r>     5.7314     0.0000     7.2500 </r>
       <r>     5.8113     0.0045     7.2504 </r>
       <r>     5.8911     1.3864     7.3610 </r>
       <r>     5.9709     6.9468     7.9156 </r>
       <r>     6.0507     1.0553     7.9998 </r>
       <r>     6.1306     0.0024     8.0000 </r>
       <r>     6.2104     0.0000     8.0000 </r>
       <r>     6.2902     0.0000     8.0000 </r>
       <r>     6.3700     0.0000     8.0000 </r>
       <r>     6.4499     0.0025     8.0002 </r>
       <r>     6.5297     1.5383     8.1230 </r>
       <r>     6.6095    13.6191     9.2102 </r>
       <r>     6.6894     3.6141     9.4987 </r>
       <r>     6.7692     0.0168     9.5000 </r>
       <r>     6.8490     0.0000     9.5000 </r>
       <r>     6.9288     0.0000     9.5000 </r>
       <r>     7.0087     0.0000     9.5000 </r>
       <r>     7.0885     0.0000     9.5000 </r>
       <r>     7.1683     0.0000     9.5000 </r>
       <r>     7.2481     0.0172     9.5014 </r>
       <r>     7.3280     2.8699     9.7305 </r>
       <r>     7.4078     8.8359    10.4358 </r>
       <r>     7.4876     0.8031    10.4999 </r>
       <r>     7.5674     0.0010    10.5000 </r>
       <r>     7.6473     0.0000    10.5000 </r>
       <r>     7.7271     0.0000    10.5000 </r>
       <r>     7.8069     0.0000    10.5000 </r>
       <r>     7.8868     0.0000    10.5000 </r>
       <r>     7.9666     0.0000    10.5000 </r>
       <r>     8.0464     0.0000    10.5000 </r>
       <r>     8.1262     0.0000    10.5000 </r>
       <r>     8.2061     0.0000    10.5000 </r>
       <r>     8.2859     0.0910    10.5073 </r>
       <r>     8.3657     4.3062    10.8510 </r>
       <r>     8.4455     4.8598    11.2390 </r>
       <r>     8.5254     0.1382    11.2500 </r>
       <r>     8.6052     0.0000    11.2500 </r>
       <r>     8.6850     0.0000    11.2500 </r>
       <r>     8.7648     0.0000    11.2500 </r>
       <r>     8.8447     0.0000    11.2500 </r>
       <r>     8.9245     0.0000    11.2500 </r>
       <r>     9.0043     0.0710    11.2557 </r>
       <r>     9.0842     2.3939    11.4468 </r>
       <r>     9.1640    15.8238    12.7099 </r>
       <r>     9.2438     9.7529    13.4885 </r>
       <r>     9.3236     0.1445    13.5000 </r>
       <r>     9.4035     0.0000    13.5000 </r>
       <r>     9.4833     0.0000    13.5000 </r>
       <r>     9.5631     0.0000    13.5000 </r>
       <r>     9.6429     0.0000    13.5000 </r>
       <r>     9.7228     0.0000    13.5000 </r>
       <r>     9.8026     0.0000    13.5000 </r>
       <r>     9.8824     0.0000    13.5000 </r>
       <r>     9.9622     0.0000    13.5000 </r>
       <r>    10.0421     0.0000    13.5000 </r>
       <r>    10.1219     0.0000    13.5000 </r>
       <r>    10.2017     0.0000    13.5000 </r>
       <r>    10.2816     0.0000    13.5000 </r>
       <r>    10.3614     0.0000    13.5000 </r>
       <r>    10.4412     0.0000    13.5000 </r>
       <r>    10.5210     0.0000    13.5000 </r>
       <r>    10.6009     0.0000    13.5000 </r>
       <r>    10.6807     0.0000    13.5000 </r>
       <r>    10.7605     0.0000    13.5000 </r>
       <r>    10.8403     0.0000    13.5000 </r>
       <r>    10.9202     0.0000    13.5000 </r>
       <r>    11.0000     0.0000    13.5000 </r>
       <r>    11.0798     0.0000    13.5000 </r>
       <r>    11.1596     0.0000    13.5000 </r>
       <r>    11.2395     0.0000    13.5000 </r>
       <r>    11.3193     0.0000    13.5000 </r>
       <r>    11.3991     0.0000    13.5000 </r>
       <r>    11.4790     0.0000    13.5000 </r>
       <r>    11.5588     0.0000    13.5000 </r>
       <r>    11.6386     0.0000    13.5000 </r>
       <r>    11.7184     0.0000    13.5000 </r>
       <r>    11.7983     0.0000    13.5000 </r>
       <r>    11.8781     0.0000    13.5000 </r>
       <r>    11.9579     0.0000    13.5000 </r>
       <r>    12.0377     0.0000    13.5000 </r>
       <r>    12.1176     0.0000    13.5000 </r>
       <r>    12.1974     0.0000    13.5000 </r>
       <r>    12.2772     0.0000    13.5000 </r>
       <r>    12.3570     0.0000    13.5000 </r>
       <r>    12.4369     0.0000    13.5000 </r>
       <r>    12.5167     0.0000    13.5000 </r>
       <r>    12.5965     0.0000    13.5000 </r>
       <r>    12.6763     0.0000    13.5000 </r>
       <r>    12.7562     0.0000    13.5000 </r>
       <r>    12.8360     0.0000    13.5000 </r>
       <r>    12.9158     0.0000    13.5000 </r>
       <r>    12.9957     0.0000    13.5000 </r>
       <r>    13.0755     0.0000    13.5000 </r>
       <r>    13.1553     0.0000    13.5000 </r>
       <r>    13.2351     0.0000    13.5000 </r>
       <r>    13.3150     0.0000    13.5000 </r>
       <r>    13.3948     0.0001    13.5000 </r>
       <r>    13.4746     0.2312    13.5185 </r>
       <r>    13.5544     6.8843    14.0680 </r>
       <r>    13.6343     5.3167    14.4924 </r>
       <r>    13.7141     0.0948    14.5000 </r>
       <r>    13.7939     0.0000    14.5000 </r>
       <r>    13.8737     0.0000    14.5000 </r>
       <r>    13.9536     0.0000    14.5000 </r>
       <r>    14.0334     0.0000    14.5000 </r>
       <r>    14.1132     0.0000    14.5000 </r>
       <r>    14.1931     0.0000    14.5000 </r>
       <r>    14.2729     0.0000    14.5000 </r>
       <r>    14.3527     0.0000    14.5000 </r>
       <r>    14.4325     0.0000    14.5000 </r>
       <r>    14.5124     0.0000    14.5000 </r>
       <r>    14.5922     0.0000    14.5000 </r>
       <r>    14.6720     0.0000    14.5000 </r>
       <r>    14.7518     0.0000    14.5000 </r>
       <r>    14.8317     0.0000    14.5000 </r>
       <r>    14.9115     0.0000    14.5000 </r>
       <r>    14.9913     0.0000    14.5000 </r>
       <r>    15.0711     0.0000    14.5000 </r>
       <r>    15.1510     0.0000    14.5000 </r>
       <r>    15.2308     0.0000    14.5000 </r>
       <r>    15.3106     0.0000    14.5000 </r>
       <r>    15.3905     0.0000    14.5000 </r>
       <r>    15.4703     0.0000    14.5000 </r>
       <r>    15.5501     0.0000    14.5000 </r>
       <r>    15.6299     0.0000    14.5000 </r>
       <r>    15.7098     0.0195    14.5016 </r>
       <r>    15.7896     3.8489    14.8088 </r>
       <r>    15.8694    13.5062    15.8870 </r>
       <r>    15.9492     1.4140    15.9998 </r>
       <r>    16.0291     0.0021    16.0000 </r>
       <r>    16.1089     0.0000    16.0000 </r>
       <r>    16.1887     0.0000    16.0000 </r>
       <r>    16.2685     0.0000    16.0000 </r>
       <r>    16.3484     0.0000    16.0000 </r>
       <r>    16.4282     0.0000    16.0000 </r>
       <r>    16.5080     0.0000    16.0000 </r>
       <r>    16.5879     0.0000    16.0000 </r>
       <r>    16.6677     0.0000    16.0000 </r>
       <r>    16.7475     0.0000    16.0000 </r>
       <r>    16.8273     0.0000    16.0000 </r>
       <r>    16.9072     0.0000    16.0000 </r>
      </set>
     </set>
    </array>
   </total>
  </dos>
 </calculation>
 <structure name="finalpos" >
  <crystal>
   <varray name="basis" >
    <v>       3.86700000       0.00000000       0.00000000 </v>
    <v>       1.93350000       3.34892024       0.00000000 </v>
    <v>       1.93350000       1.11630674       3.15739228 </v>
   </varray>
   <i name="volume">     40.88909687 </i>
   <varray name="rec_basis" >
    <v>       0.25859840      -0.14930185      -0.10557235 </v>
    <v>       0.00000000       0.29860371      -0.10557235 </v>
    <v>       0.00000000       0.00000000       0.31671706 </v>
   </varray>
  </crystal>
  <varray name="positions" >
   <v>       0.00000000       0.00000000       0.00000000 </v>
   <v>       0.25000000       0.25000000       0.25000000 </v>
  </varray>
 </structure>
</modeling>
