   2   2   0   0
  0.2044455E+02  0.3867000E-09  0.3867000E-09  0.3867000E-09  0.5000000E-15
  1.000000000000000E-004
  CAR 
 Si                                      
     16.90715868     -7.04082044  301      6.21538384      1.00000000
     -7.041  0.0000E+00  0.0000E+00
     -6.961  0.0000E+00  0.0000E+00
     -6.881  0.0000E+00  0.0000E+00
     -6.801  0.0000E+00  0.0000E+00
     -6.722  0.0000E+00  0.0000E+00
     -6.642  0.0000E+00  0.0000E+00
     -6.562  0.0000E+00  0.0000E+00
     -6.482  0.0000E+00  0.0000E+00
     -6.402  0.0000E+00  0.0000E+00
     -6.322  0.0000E+00  0.0000E+00
     -6.243  0.3477E-15  0.2776E-16
     -6.163  0.4136E-08  0.3301E-09
     -6.083  0.3448E-03  0.2752E-04
     -6.003  0.2358E+00  0.1885E-01
     -5.923  0.2251E+01  0.1985E+00
     -5.843  0.6413E+00  0.2497E+00
     -5.764  0.3254E-02  0.2500E+00
     -5.684  0.1482E-06  0.2500E+00
     -5.604  0.4833E-13  0.2500E+00
     -5.524  0.0000E+00  0.2500E+00
     -5.444  0.0000E+00  0.2500E+00
     -5.364  0.0000E+00  0.2500E+00
     -5.285  0.0000E+00  0.2500E+00
     -5.205  0.0000E+00  0.2500E+00
     -5.125  0.0000E+00  0.2500E+00
     -5.045  0.0000E+00  0.2500E+00
     -4.965  0.0000E+00  0.2500E+00
     -4.886  0.0000E+00  0.2500E+00
     -4.806  0.0000E+00  0.2500E+00
     -4.726  0.0000E+00  0.2500E+00
     -4.646  0.0000E+00  0.2500E+00
     -4.566  0.0000E+00  0.2500E+00
     -4.486  0.0000E+00  0.2500E+00
     -4.407  0.0000E+00  0.2500E+00
     -4.327  0.0000E+00  0.2500E+00
     -4.247  0.0000E+00  0.2500E+00
     -4.167  0.0000E+00  0.2500E+00
     -4.087  0.0000E+00  0.2500E+00
     -4.007  0.0000E+00  0.2500E+00
     -3.928  0.7232E-13  0.2500E+00
     -3.848  0.2931E-06  0.2500E+00
     -3.768  0.8453E-02  0.2507E+00
     -3.688  0.2143E+01  0.4217E+00
     -3.608  0.9186E+01  0.1155E+01
     -3.528  0.1188E+01  0.1250E+01
     -3.449  0.2251E-02  0.1250E+01
     -3.369  0.3553E-07  0.1250E+01
     -3.289  0.4172E-14  0.1250E+01
     -3.209  0.0000E+00  0.1250E+01
     -3.129  0.0000E+00  0.1250E+01
     -3.049  0.0000E+00  0.1250E+01
     -2.970  0.0000E+00  0.1250E+01
     -2.890  0.0000E+00  0.1250E+01
     -2.810  0.0000E+00  0.1250E+01
     -2.730  0.0000E+00  0.1250E+01
     -2.650  0.0000E+00  0.1250E+01
     -2.571  0.0000E+00  0.1250E+01
     -2.491  0.0000E+00  0.1250E+01
     -2.411  0.0000E+00  0.1250E+01
     -2.331  0.0000E+00  0.1250E+01
     -2.251  0.0000E+00  0.1250E+01
     -2.171  0.0000E+00  0.1250E+01
     -2.092  0.6930E-09  0.1250E+01
     -2.012  0.1964E-03  0.1250E+01
     -1.932  0.4302E+00  0.1284E+01
     -1.852  0.1090E+02  0.2154E+01
     -1.772  0.7352E+01  0.2741E+01
     -1.692  0.1107E+00  0.2750E+01
     -1.613  0.1677E-04  0.2750E+01
     -1.533  0.1883E-10  0.2750E+01
     -1.453  0.0000E+00  0.2750E+01
     -1.373  0.0000E+00  0.2750E+01
     -1.293  0.3686E-13  0.2750E+01
     -1.213  0.1801E-06  0.2750E+01
     -1.134  0.6251E-02  0.2750E+01
     -1.054  0.1882E+01  0.2901E+01
     -0.974  0.9256E+01  0.3640E+01
     -0.894  0.1379E+01  0.3750E+01
     -0.814  0.3112E-02  0.3750E+01
     -0.735  0.5920E-07  0.3750E+01
     -0.655  0.8345E-14  0.3750E+01
     -0.575  0.0000E+00  0.3750E+01
     -0.495  0.0000E+00  0.3750E+01
     -0.415  0.0000E+00  0.3750E+01
     -0.335  0.0000E+00  0.3750E+01
     -0.256  0.0000E+00  0.3750E+01
     -0.176  0.0000E+00  0.3750E+01
     -0.096  0.0000E+00  0.3750E+01
     -0.016  0.0000E+00  0.3750E+01
      0.064  0.0000E+00  0.3750E+01
      0.144  0.0000E+00  0.3750E+01
      0.223  0.0000E+00  0.3750E+01
      0.303  0.0000E+00  0.3750E+01
      0.383  0.0000E+00  0.3750E+01
      0.463  0.0000E+00  0.3750E+01
      0.543  0.0000E+00  0.3750E+01
      0.623  0.0000E+00  0.3750E+01
      0.702  0.0000E+00  0.3750E+01
      0.782  0.0000E+00  0.3750E+01
      0.862  0.0000E+00  0.3750E+01
      0.942  0.0000E+00  0.3750E+01
      1.022  0.0000E+00  0.3750E+01
      1.101  0.0000E+00  0.3750E+01
      1.181  0.0000E+00  0.3750E+01
      1.261  0.0000E+00  0.3750E+01
      1.341  0.0000E+00  0.3750E+01
      1.421  0.0000E+00  0.3750E+01
      1.501  0.0000E+00  0.3750E+01
      1.580  0.0000E+00  0.3750E+01
      1.660  0.0000E+00  0.3750E+01
      1.740  0.0000E+00  0.3750E+01
      1.820  0.0000E+00  0.3750E+01
      1.900  0.0000E+00  0.3750E+01
      1.980  0.0000E+00  0.3750E+01
      2.059  0.0000E+00  0.3750E+01
      2.139  0.0000E+00  0.3750E+01
      2.219  0.0000E+00  0.3750E+01
      2.299  0.0000E+00  0.3750E+01
      2.379  0.0000E+00  0.3750E+01
      2.459  0.0000E+00  0.3750E+01
      2.538  0.0000E+00  0.3750E+01
      2.618  0.0000E+00  0.3750E+01
      2.698  0.0000E+00  0.3750E+01
      2.778  0.1043E-13  0.3750E+01
      2.858  0.7906E-07  0.3750E+01
      2.938  0.4337E-02  0.3750E+01
      3.017  0.2001E+01  0.3910E+01
      3.097  0.1387E+02  0.5017E+01
      3.177  0.2910E+01  0.5249E+01
      3.257  0.1005E-01  0.5250E+01
      3.337  0.3022E-06  0.5250E+01
      3.416  0.6467E-13  0.5250E+01
      3.496  0.0000E+00  0.5250E+01
      3.576  0.0000E+00  0.5250E+01
      3.656  0.0000E+00  0.5250E+01
      3.736  0.0000E+00  0.5250E+01
      3.816  0.0000E+00  0.5250E+01
      3.895  0.0000E+00  0.5250E+01
      3.975  0.0000E+00  0.5250E+01
      4.055  0.0000E+00  0.5250E+01
      4.135  0.0000E+00  0.5250E+01
      4.215  0.0000E+00  0.5250E+01
      4.295  0.0000E+00  0.5250E+01
      4.374  0.0000E+00  0.5250E+01
      4.454  0.2537E-11  0.5250E+01
      4.534  0.4502E-05  0.5250E+01
      4.614  0.5804E-01  0.5255E+01
      4.694  0.7035E+01  0.5816E+01
      4.774  0.1681E+02  0.7158E+01
      4.853  0.1153E+01  0.7250E+01
      4.933  0.1012E-02  0.7250E+01
      5.013  0.7078E-08  0.7250E+01
      5.093  0.0000E+00  0.7250E+01
      5.173  0.0000E+00  0.7250E+01
      5.252  0.0000E+00  0.7250E+01
      5.332  0.0000E+00  0.7250E+01
      5.412  0.0000E+00  0.7250E+01
      5.492  0.0000E+00  0.7250E+01
      5.572  0.0000E+00  0.7250E+01
      5.652  0.2503E-13  0.7250E+01
      5.731  0.1263E-06  0.7250E+01
      5.811  0.4498E-02  0.7250E+01
      5.891  0.1386E+01  0.7361E+01
      5.971  0.6947E+01  0.7916E+01
      6.051  0.1055E+01  0.8000E+01
      6.131  0.2438E-02  0.8000E+01
      6.210  0.4757E-07  0.8000E+01
      6.290  0.9388E-14  0.8000E+01
      6.370  0.3264E-07  0.8000E+01
      6.450  0.2468E-02  0.8000E+01
      6.530  0.1538E+01  0.8123E+01
      6.610  0.1362E+02  0.9210E+01
      6.689  0.3614E+01  0.9499E+01
      6.769  0.1677E-01  0.9500E+01
      6.849  0.6931E-06  0.9500E+01
      6.929  0.2044E-12  0.9500E+01
      7.009  0.0000E+00  0.9500E+01
      7.088  0.3679E-12  0.9500E+01
      7.168  0.9374E-06  0.9500E+01
      7.248  0.1718E-01  0.9501E+01
      7.328  0.2870E+01  0.9730E+01
      7.408  0.8836E+01  0.1044E+02
      7.488  0.8031E+00  0.1050E+02
      7.567  0.9887E-03  0.1050E+02
      7.647  0.9883E-08  0.1050E+02
      7.727  0.0000E+00  0.1050E+02
      7.807  0.0000E+00  0.1050E+02
      7.887  0.0000E+00  0.1050E+02
      7.967  0.0000E+00  0.1050E+02
      8.046  0.0000E+00  0.1050E+02
      8.126  0.3380E-10  0.1050E+02
      8.206  0.2024E-04  0.1050E+02
      8.286  0.9104E-01  0.1051E+02
      8.366  0.4306E+01  0.1085E+02
      8.446  0.4860E+01  0.1124E+02
      8.525  0.1382E+00  0.1125E+02
      8.605  0.4316E-04  0.1125E+02
      8.685  0.1025E-09  0.1125E+02
      8.765  0.0000E+00  0.1125E+02
      8.845  0.1110E-09  0.1125E+02
      8.924  0.3188E-04  0.1125E+02
      9.004  0.7097E-01  0.1126E+02
      9.084  0.2394E+01  0.1145E+02
      9.164  0.1582E+02  0.1271E+02
      9.244  0.9753E+01  0.1349E+02
      9.324  0.1445E+00  0.1350E+02
      9.403  0.2154E-04  0.1350E+02
      9.483  0.2380E-10  0.1350E+02
      9.563  0.0000E+00  0.1350E+02
      9.643  0.0000E+00  0.1350E+02
      9.723  0.0000E+00  0.1350E+02
      9.803  0.0000E+00  0.1350E+02
      9.882  0.0000E+00  0.1350E+02
      9.962  0.0000E+00  0.1350E+02
     10.042  0.0000E+00  0.1350E+02
     10.122  0.0000E+00  0.1350E+02
     10.202  0.0000E+00  0.1350E+02
     10.282  0.0000E+00  0.1350E+02
     10.361  0.0000E+00  0.1350E+02
     10.441  0.0000E+00  0.1350E+02
     10.521  0.0000E+00  0.1350E+02
     10.601  0.0000E+00  0.1350E+02
     10.681  0.0000E+00  0.1350E+02
     10.761  0.0000E+00  0.1350E+02
     10.840  0.0000E+00  0.1350E+02
     10.920  0.0000E+00  0.1350E+02
     11.000  0.0000E+00  0.1350E+02
     11.080  0.0000E+00  0.1350E+02
     11.160  0.0000E+00  0.1350E+02
     11.239  0.0000E+00  0.1350E+02
     11.319  0.0000E+00  0.1350E+02
     11.399  0.0000E+00  0.1350E+02
     11.479  0.0000E+00  0.1350E+02
     11.559  0.0000E+00  0.1350E+02
     11.639  0.0000E+00  0.1350E+02
     11.718  0.0000E+00  0.1350E+02
     11.798  0.0000E+00  0.1350E+02
     11.878  0.0000E+00  0.1350E+02
     11.958  0.0000E+00  0.1350E+02
     12.038  0.0000E+00  0.1350E+02
     12.118  0.0000E+00  0.1350E+02
     12.197  0.0000E+00  0.1350E+02
     12.277  0.0000E+00  0.1350E+02
     12.357  0.0000E+00  0.1350E+02
     12.437  0.0000E+00  0.1350E+02
     12.517  0.0000E+00  0.1350E+02
     12.597  0.0000E+00  0.1350E+02
     12.676  0.0000E+00  0.1350E+02
     12.756  0.0000E+00  0.1350E+02
     12.836  0.0000E+00  0.1350E+02
     12.916  0.0000E+00  0.1350E+02
     12.996  0.0000E+00  0.1350E+02
     13.075  0.0000E+00  0.1350E+02
     13.155  0.0000E+00  0.1350E+02
     13.235  0.0000E+00  0.1350E+02
     13.315  0.2538E-09  0.1350E+02
     13.395  0.8750E-04  0.1350E+02
     13.475  0.2312E+00  0.1352E+02
     13.554  0.6884E+01  0.1407E+02
     13.634  0.5317E+01  0.1449E+02
     13.714  0.9477E-01  0.1450E+02
     13.794  0.1736E-04  0.1450E+02
     13.874  0.2373E-10  0.1450E+02
     13.954  0.0000E+00  0.1450E+02
     14.033  0.0000E+00  0.1450E+02
     14.113  0.0000E+00  0.1450E+02
     14.193  0.0000E+00  0.1450E+02
     14.273  0.0000E+00  0.1450E+02
     14.353  0.0000E+00  0.1450E+02
     14.433  0.0000E+00  0.1450E+02
     14.512  0.0000E+00  0.1450E+02
     14.592  0.0000E+00  0.1450E+02
     14.672  0.0000E+00  0.1450E+02
     14.752  0.0000E+00  0.1450E+02
     14.832  0.0000E+00  0.1450E+02
     14.911  0.0000E+00  0.1450E+02
     14.991  0.0000E+00  0.1450E+02
     15.071  0.0000E+00  0.1450E+02
     15.151  0.0000E+00  0.1450E+02
     15.231  0.0000E+00  0.1450E+02
     15.311  0.0000E+00  0.1450E+02
     15.390  0.0000E+00  0.1450E+02
     15.470  0.0000E+00  0.1450E+02
     15.550  0.2905E-12  0.1450E+02
     15.630  0.8903E-06  0.1450E+02
     15.710  0.1953E-01  0.1450E+02
     15.790  0.3849E+01  0.1481E+02
     15.869  0.1351E+02  0.1589E+02
     15.949  0.1414E+01  0.1600E+02
     16.029  0.2067E-02  0.1600E+02
     16.109  0.2478E-07  0.1600E+02
     16.189  0.2086E-14  0.1600E+02
     16.269  0.0000E+00  0.1600E+02
     16.348  0.0000E+00  0.1600E+02
     16.428  0.0000E+00  0.1600E+02
     16.508  0.0000E+00  0.1600E+02
     16.588  0.0000E+00  0.1600E+02
     16.668  0.0000E+00  0.1600E+02
     16.748  0.0000E+00  0.1600E+02
     16.827  0.0000E+00  0.1600E+02
     16.907  0.0000E+00  0.1600E+02
