    2    2    1    1
  0.2044455E+02  0.3867000E-09  0.3867000E-09  0.3867000E-09  0.5000000E-15
  1.000000000000000E-004
  CAR 
 Si                                      
      8      3      8
 
  0.1262379E-14  0.1262379E-14  0.1262379E-14  0.1250000E+00
    1       -5.952276
    2        5.928020
    3        5.928037
    4        5.928037
    5        8.368537
    6        8.368555
    7        8.368555
    8        9.075145
 
  0.5000000E+00  0.1193490E-14  0.1110223E-14  0.5000000E+00
    1       -3.654608
    2       -1.017296
    3        4.713961
    4        4.713978
    5        7.354035
    6        9.154481
    7        9.154515
    8       13.548384
 
  0.5000000E+00  0.5000000E+00  0.1165734E-14  0.3750000E+00
    1       -1.861309
    2       -1.861308
    3        3.061318
    4        3.061327
    5        6.578898
    6        6.578917
    7       15.818600
    8       15.818614
