 running on    2 total cores
 distrk:  each k-point on    2 cores,    1 groups
 distr:  one band on    1 cores,    2 groups
 using from now: INCAR     
 vasp.5.3.5 31Mar14 (build Oct 05 2015 11:49:38) complex                        
  
 POSCAR found type information on POSCAR  Si
 POSCAR found :  1 types and       2 ions
 scaLAPACK will be used
 LDA part: xc-table for Pade appr. of Perdew
 POSCAR, INCAR and KPOINTS ok, starting setup
 WARNING: small aliasing (wrap around) errors must be expected
 FFT: planning ...
 WAVECAR not read
 entering main loop
       N       E                     dE             d eps       ncg     rms          rms(c)
DAV:   1     0.254388648653E+01    0.25439E+01   -0.22282E+03    48   0.437E+02
DAV:   2    -0.853229991401E+01   -0.11076E+02   -0.10224E+02    80   0.600E+01
DAV:   3    -0.865826883298E+01   -0.12597E+00   -0.12597E+00    64   0.777E+00
DAV:   4    -0.865881137515E+01   -0.54254E-03   -0.54254E-03    80   0.496E-01
DAV:   5    -0.865881161843E+01   -0.24327E-06   -0.24330E-06    48   0.112E-02    0.592E+00
DAV:   6    -0.841206258705E+01    0.24675E+00   -0.14695E-01    64   0.207E+00    0.372E+00
DAV:   7    -0.830623000057E+01    0.10583E+00   -0.29771E-01    48   0.320E+00    0.300E-01
DAV:   8    -0.831138303301E+01   -0.51530E-02   -0.83316E-03    48   0.644E-01    0.766E-02
DAV:   9    -0.831247116382E+01   -0.10881E-02   -0.94303E-04    48   0.216E-01    0.606E-02
DAV:  10    -0.831258032856E+01   -0.10916E-03   -0.12732E-04    64   0.847E-02    0.102E-02
DAV:  11    -0.831258262669E+01   -0.22981E-05   -0.18623E-06    24   0.119E-02
   1 F= -.83125826E+01 E0= -.83125826E+01  d E =-.478904E-16
