   2   2   0   0
  0.2001288E+02  0.3839590E-09  0.3839590E-09  0.3839590E-09  0.1500000E-15
  1.000000000000000E-004
  CAR 
 unknown system                          
     19.45887053     -8.19855594  301      5.63591926      1.00000000
     -8.199  0.0000E+00  0.0000E+00
     -8.106  0.0000E+00  0.0000E+00
     -8.014  0.0000E+00  0.0000E+00
     -7.922  0.0000E+00  0.0000E+00
     -7.830  0.0000E+00  0.0000E+00
     -7.738  0.0000E+00  0.0000E+00
     -7.645  0.0000E+00  0.0000E+00
     -7.553  0.0000E+00  0.0000E+00
     -7.461  0.0000E+00  0.0000E+00
     -7.369  0.0000E+00  0.0000E+00
     -7.277  0.0000E+00  0.0000E+00
     -7.184  0.0000E+00  0.0000E+00
     -7.092  0.0000E+00  0.0000E+00
     -7.000  0.0000E+00  0.0000E+00
     -6.908  0.0000E+00  0.0000E+00
     -6.816  0.0000E+00  0.0000E+00
     -6.723  0.0000E+00  0.0000E+00
     -6.631  0.0000E+00  0.0000E+00
     -6.539  0.0000E+00  0.0000E+00
     -6.447  0.0000E+00  0.0000E+00
     -6.355  0.0000E+00  0.0000E+00
     -6.263  0.0000E+00  0.0000E+00
     -6.170  0.2944E-04  0.2768E-06
     -6.078  0.2068E-03  0.1401E-04
     -5.986  0.3195E-03  0.3815E-04
     -5.894  0.3705E-03  0.7040E-04
     -5.802  0.4378E-03  0.1076E-03
     -5.709  0.5012E-03  0.1512E-03
     -5.617  0.5425E-03  0.1993E-03
     -5.525  0.5872E-03  0.2513E-03
     -5.433  0.6406E-03  0.3078E-03
     -5.341  0.6864E-03  0.3692E-03
     -5.248  0.7227E-03  0.4341E-03
     -5.156  0.7638E-03  0.5026E-03
     -5.064  0.8083E-03  0.5750E-03
     -4.972  0.8559E-03  0.6517E-03
     -4.880  0.8959E-03  0.7325E-03
     -4.787  0.9361E-03  0.8169E-03
     -4.695  0.9818E-03  0.9053E-03
     -4.603  0.1030E-02  0.9980E-03
     -4.511  0.1083E-02  0.1095E-02
     -4.419  0.1138E-02  0.1198E-02
     -4.327  0.1197E-02  0.1305E-02
     -4.234  0.1267E-02  0.1419E-02
     -4.142  0.1359E-02  0.1540E-02
     -4.050  0.1475E-02  0.1670E-02
     -3.958  0.1736E-02  0.1816E-02
     -3.866  0.1729E-02  0.1980E-02
     -3.773  0.1800E-02  0.2150E-02
     -3.681  0.1686E-02  0.2310E-02
     -3.589  0.1634E-02  0.2463E-02
     -3.497  0.1564E-02  0.2611E-02
     -3.405  0.1483E-02  0.2751E-02
     -3.312  0.1458E-02  0.2887E-02
     -3.220  0.1393E-02  0.3019E-02
     -3.128  0.1298E-02  0.3143E-02
     -3.036  0.1236E-02  0.3259E-02
     -2.944  0.1176E-02  0.3370E-02
     -2.851  0.1121E-02  0.3476E-02
     -2.759  0.1054E-02  0.3577E-02
     -2.667  0.9941E-03  0.3671E-02
     -2.575  0.9542E-03  0.3761E-02
     -2.483  0.8572E-03  0.3845E-02
     -2.390  0.7077E-03  0.3917E-02
     -2.298  0.4535E-03  0.3980E-02
     -2.206  0.5073E-04  0.3999E-02
     -2.114  0.0000E+00  0.4000E-02
     -2.022  0.1998E-04  0.4000E-02
     -1.930  0.7953E-04  0.4005E-02
     -1.837  0.2160E-03  0.4018E-02
     -1.745  0.4064E-03  0.4046E-02
     -1.653  0.7955E-03  0.4101E-02
     -1.561  0.8640E-03  0.4184E-02
     -1.469  0.9524E-03  0.4266E-02
     -1.376  0.1059E-02  0.4359E-02
     -1.284  0.1240E-02  0.4464E-02
     -1.192  0.1604E-02  0.4587E-02
     -1.100  0.2846E-02  0.4783E-02
     -1.008  0.3063E-02  0.5122E-02
     -0.915  0.2198E-02  0.5356E-02
     -0.823  0.1786E-02  0.5538E-02
     -0.731  0.1579E-02  0.5692E-02
     -0.639  0.1445E-02  0.5831E-02
     -0.547  0.1334E-02  0.5959E-02
     -0.454  0.1232E-02  0.6078E-02
     -0.362  0.1135E-02  0.6187E-02
     -0.270  0.1049E-02  0.6287E-02
     -0.178  0.9752E-03  0.6380E-02
     -0.086  0.9304E-03  0.6468E-02
      0.006  0.8879E-03  0.6552E-02
      0.099  0.8445E-03  0.6632E-02
      0.191  0.8000E-03  0.6707E-02
      0.283  0.7569E-03  0.6779E-02
      0.375  0.7078E-03  0.6847E-02
      0.467  0.6567E-03  0.6909E-02
      0.560  0.6293E-03  0.6969E-02
      0.652  0.6061E-03  0.7025E-02
      0.744  0.5835E-03  0.7080E-02
      0.836  0.5610E-03  0.7133E-02
      0.928  0.5363E-03  0.7184E-02
      1.021  0.5062E-03  0.7232E-02
      1.113  0.4747E-03  0.7277E-02
      1.205  0.4409E-03  0.7319E-02
      1.297  0.4156E-03  0.7359E-02
      1.389  0.9468E-03  0.7404E-02
      1.482  0.1413E-02  0.7512E-02
      1.574  0.2368E-02  0.7683E-02
      1.666  0.3151E-02  0.7932E-02
      1.758  0.2294E-02  0.8172E-02
      1.850  0.2154E-02  0.8376E-02
      1.943  0.2127E-02  0.8573E-02
      2.035  0.2040E-02  0.8771E-02
      2.127  0.1930E-02  0.8959E-02
      2.219  0.2083E-02  0.9148E-02
      2.311  0.2292E-02  0.9350E-02
      2.403  0.2188E-02  0.9550E-02
      2.496  0.2256E-02  0.9755E-02
      2.588  0.2447E-02  0.9974E-02
      2.680  0.2641E-02  0.1022E-01
      2.772  0.2838E-02  0.1046E-01
      2.864  0.3147E-02  0.1075E-01
      2.957  0.3317E-02  0.1104E-01
      3.049  0.3022E-02  0.1133E-01
      3.141  0.2961E-02  0.1160E-01
      3.233  0.2943E-02  0.1187E-01
      3.325  0.2902E-02  0.1214E-01
      3.418  0.2827E-02  0.1241E-01
      3.510  0.2737E-02  0.1267E-01
      3.602  0.2704E-02  0.1292E-01
      3.694  0.2729E-02  0.1317E-01
      3.786  0.2682E-02  0.1342E-01
      3.879  0.2601E-02  0.1366E-01
      3.971  0.2568E-02  0.1390E-01
      4.063  0.2552E-02  0.1413E-01
      4.155  0.2517E-02  0.1437E-01
      4.247  0.2466E-02  0.1460E-01
      4.339  0.2429E-02  0.1482E-01
      4.432  0.2085E-02  0.1503E-01
      4.524  0.1619E-02  0.1520E-01
      4.616  0.1402E-02  0.1534E-01
      4.708  0.1194E-02  0.1546E-01
      4.800  0.1051E-02  0.1556E-01
      4.893  0.9243E-03  0.1566E-01
      4.985  0.8342E-03  0.1574E-01
      5.077  0.7109E-03  0.1581E-01
      5.169  0.5914E-03  0.1587E-01
      5.261  0.4757E-03  0.1592E-01
      5.354  0.3399E-03  0.1596E-01
      5.446  0.2486E-03  0.1598E-01
      5.538  0.5187E-04  0.1600E-01
      5.630  0.0000E+00  0.1600E-01
      5.722  0.0000E+00  0.1600E-01
      5.815  0.0000E+00  0.1600E-01
      5.907  0.0000E+00  0.1600E-01
      5.999  0.0000E+00  0.1600E-01
      6.091  0.0000E+00  0.1600E-01
      6.183  0.0000E+00  0.1600E-01
      6.275  0.3273E-04  0.1600E-01
      6.368  0.2085E-03  0.1601E-01
      6.460  0.3395E-03  0.1604E-01
      6.552  0.4888E-03  0.1608E-01
      6.644  0.6301E-03  0.1613E-01
      6.736  0.7767E-03  0.1619E-01
      6.829  0.9351E-03  0.1627E-01
      6.921  0.1077E-02  0.1636E-01
      7.013  0.1142E-02  0.1647E-01
      7.105  0.1227E-02  0.1657E-01
      7.197  0.1364E-02  0.1669E-01
      7.290  0.1527E-02  0.1683E-01
      7.382  0.1716E-02  0.1698E-01
      7.474  0.1935E-02  0.1714E-01
      7.566  0.2178E-02  0.1733E-01
      7.658  0.2551E-02  0.1755E-01
      7.751  0.3137E-02  0.1781E-01
      7.843  0.3409E-02  0.1812E-01
      7.935  0.3537E-02  0.1844E-01
      8.027  0.3996E-02  0.1878E-01
      8.119  0.3517E-02  0.1915E-01
      8.212  0.2863E-02  0.1945E-01
      8.304  0.2405E-02  0.1969E-01
      8.396  0.2323E-02  0.1990E-01
      8.488  0.2254E-02  0.2012E-01
      8.580  0.2037E-02  0.2031E-01
      8.672  0.1675E-02  0.2049E-01
      8.765  0.1695E-02  0.2066E-01
      8.857  0.2217E-02  0.2083E-01
      8.949  0.3942E-02  0.2112E-01
      9.041  0.4151E-02  0.2152E-01
      9.133  0.3729E-02  0.2188E-01
      9.226  0.4164E-02  0.2225E-01
      9.318  0.4126E-02  0.2263E-01
      9.410  0.3719E-02  0.2300E-01
      9.502  0.3151E-02  0.2332E-01
      9.594  0.2893E-02  0.2359E-01
      9.687  0.2687E-02  0.2386E-01
      9.779  0.2311E-02  0.2409E-01
      9.871  0.2094E-02  0.2430E-01
      9.963  0.1981E-02  0.2448E-01
     10.055  0.2468E-02  0.2468E-01
     10.148  0.2492E-02  0.2491E-01
     10.240  0.2129E-02  0.2513E-01
     10.332  0.1970E-02  0.2531E-01
     10.424  0.1995E-02  0.2550E-01
     10.516  0.1976E-02  0.2568E-01
     10.608  0.2260E-02  0.2587E-01
     10.701  0.2300E-02  0.2608E-01
     10.793  0.2185E-02  0.2629E-01
     10.885  0.2140E-02  0.2649E-01
     10.977  0.2301E-02  0.2669E-01
     11.069  0.2494E-02  0.2691E-01
     11.162  0.2496E-02  0.2715E-01
     11.254  0.2307E-02  0.2737E-01
     11.346  0.2013E-02  0.2757E-01
     11.438  0.1845E-02  0.2775E-01
     11.530  0.1819E-02  0.2792E-01
     11.623  0.1746E-02  0.2808E-01
     11.715  0.1811E-02  0.2824E-01
     11.807  0.1764E-02  0.2842E-01
     11.899  0.1672E-02  0.2857E-01
     11.991  0.1594E-02  0.2872E-01
     12.084  0.1576E-02  0.2887E-01
     12.176  0.1657E-02  0.2902E-01
     12.268  0.1858E-02  0.2918E-01
     12.360  0.1990E-02  0.2936E-01
     12.452  0.2092E-02  0.2954E-01
     12.545  0.2295E-02  0.2975E-01
     12.637  0.2327E-02  0.2996E-01
     12.729  0.1924E-02  0.3016E-01
     12.821  0.1613E-02  0.3032E-01
     12.913  0.1487E-02  0.3046E-01
     13.005  0.1457E-02  0.3060E-01
     13.098  0.1403E-02  0.3073E-01
     13.190  0.1336E-02  0.3086E-01
     13.282  0.1328E-02  0.3098E-01
     13.374  0.1547E-02  0.3111E-01
     13.466  0.1273E-02  0.3125E-01
     13.559  0.9116E-03  0.3135E-01
     13.651  0.7564E-03  0.3142E-01
     13.743  0.7330E-03  0.3149E-01
     13.835  0.6297E-03  0.3155E-01
     13.927  0.5300E-03  0.3161E-01
     14.020  0.4169E-03  0.3165E-01
     14.112  0.3708E-03  0.3169E-01
     14.204  0.3354E-03  0.3172E-01
     14.296  0.3024E-03  0.3175E-01
     14.388  0.2716E-03  0.3178E-01
     14.481  0.2431E-03  0.3180E-01
     14.573  0.2168E-03  0.3182E-01
     14.665  0.1927E-03  0.3184E-01
     14.757  0.1708E-03  0.3186E-01
     14.849  0.1512E-03  0.3187E-01
     14.941  0.1338E-03  0.3188E-01
     15.034  0.1248E-03  0.3190E-01
     15.126  0.1828E-03  0.3191E-01
     15.218  0.8407E-04  0.3192E-01
     15.310  0.6945E-04  0.3193E-01
     15.402  0.6431E-04  0.3193E-01
     15.495  0.5999E-04  0.3194E-01
     15.587  0.5655E-04  0.3194E-01
     15.679  0.5323E-04  0.3195E-01
     15.771  0.5003E-04  0.3195E-01
     15.863  0.4695E-04  0.3196E-01
     15.956  0.4399E-04  0.3196E-01
     16.048  0.4115E-04  0.3197E-01
     16.140  0.3843E-04  0.3197E-01
     16.232  0.3645E-04  0.3197E-01
     16.324  0.3460E-04  0.3198E-01
     16.417  0.3275E-04  0.3198E-01
     16.509  0.3093E-04  0.3198E-01
     16.601  0.2911E-04  0.3198E-01
     16.693  0.2732E-04  0.3199E-01
     16.785  0.2553E-04  0.3199E-01
     16.878  0.2377E-04  0.3199E-01
     16.970  0.2201E-04  0.3199E-01
     17.062  0.2027E-04  0.3200E-01
     17.154  0.1855E-04  0.3200E-01
     17.246  0.9599E-05  0.3200E-01
     17.338  0.3318E-05  0.3200E-01
     17.431  0.2810E-06  0.3200E-01
     17.523  0.0000E+00  0.3200E-01
     17.615  0.0000E+00  0.3200E-01
     17.707  0.0000E+00  0.3200E-01
     17.799  0.0000E+00  0.3200E-01
     17.892  0.0000E+00  0.3200E-01
     17.984  0.0000E+00  0.3200E-01
     18.076  0.0000E+00  0.3200E-01
     18.168  0.0000E+00  0.3200E-01
     18.260  0.0000E+00  0.3200E-01
     18.353  0.0000E+00  0.3200E-01
     18.445  0.0000E+00  0.3200E-01
     18.537  0.0000E+00  0.3200E-01
     18.629  0.0000E+00  0.3200E-01
     18.721  0.0000E+00  0.3200E-01
     18.814  0.0000E+00  0.3200E-01
     18.906  0.0000E+00  0.3200E-01
     18.998  0.0000E+00  0.3200E-01
     19.090  0.0000E+00  0.3200E-01
     19.182  0.0000E+00  0.3200E-01
     19.274  0.0000E+00  0.3200E-01
     19.367  0.0000E+00  0.3200E-01
     19.459  0.0000E+00  0.3200E-01
