    2    2  500    1
  0.2001288E+02  0.3839590E-09  0.3839590E-09  0.3839590E-09  0.1500000E-15
  1.000000000000000E-004
  CAR 
 unknown system                          
      8     84      8
 
  0.3742002E-15  0.3742002E-15  0.3742002E-15  0.4551661E-03
    1       -6.198556   1.000000
    2        5.617607   1.000000
    3        5.617607   1.000000
    4        5.617607   1.000000
    5        8.174919   0.000000
    6        8.174919   0.000000
    7        8.176174   0.000000
    8       13.335683   0.000000
 
  0.7692308E-01  0.3816392E-15  0.3816392E-15  0.3641329E-02
    1       -6.122352   1.000000
    2        4.864554   1.000000
    3        5.496312   1.000000
    4        5.496312   1.000000
    5        8.195187   0.000000
    6        8.353485   0.000000
    7        8.353485   0.000000
    8        9.358775   0.000000
 
  0.1538462E+00  0.3747003E-15  0.3747003E-15  0.3641329E-02
    1       -5.895791   1.000000
    2        3.493283   1.000000
    3        5.226132   1.000000
    4        5.226132   1.000000
    5        7.954665   0.000000
    6        8.744605   0.000000
    7        8.744605   0.000000
    8       10.666281   0.000000
 
  0.2307692E+00  0.3747003E-15  0.3747003E-15  0.3641329E-02
    1       -5.526428   1.000000
    2        2.074035   1.000000
    3        4.938239   1.000000
    4        4.938239   1.000000
    5        7.650118   0.000000
    6        9.066079   0.000000
    7        9.066079   0.000000
    8       12.041891   0.000000
 
  0.3076923E+00  0.3885781E-15  0.3885781E-15  0.3641329E-02
    1       -5.033168   1.000000
    2        0.751663   1.000000
    3        4.698926   1.000000
    4        4.698926   1.000000
    5        7.383707   0.000000
    6        9.140693   0.000000
    7        9.140693   0.000000
    8       13.273253   0.000000
 
  0.3846154E+00  0.3608225E-15  0.3608225E-15  0.3641329E-02
    1       -4.468049   1.000000
    2       -0.380371   1.000000
    3        4.533299   1.000000
    4        4.533299   1.000000
    5        7.194486   0.000000
    6        9.058717   0.000000
    7        9.058717   0.000000
    8       13.445881   0.000000
 
  0.4615385E+00  0.3885781E-15  0.3885781E-15  0.3641329E-02
    1       -3.998381   1.000000
    2       -1.137009   1.000000
    3        4.449471   1.000000
    4        4.449471   1.000000
    5        7.097396   0.000000
    6        8.979432   0.000000
    7        8.979432   0.000000
    8       13.338439   0.000000
 
  0.7692308E-01  0.7692308E-01  0.3742002E-15  0.2730997E-02
    1       -6.096844   1.000000
    2        4.998130   1.000000
    3        5.251638   1.000000
    4        5.251638   1.000000
    5        7.942243   0.000000
    6        8.666012   0.000000
    7        8.666012   0.000000
    8        9.335253   0.000000
 
  0.1538462E+00  0.7692308E-01  0.3747003E-15  0.1092399E-01
    1       -5.920035   1.000000
    2        3.893925   1.000000
    3        4.926138   1.000000
    4        5.103192   1.000000
    5        7.950665   0.000000
    6        8.715901   0.000000
    7        9.144637   0.000000
    8       10.257561   0.000000
 
  0.2307692E+00  0.7692308E-01  0.3747003E-15  0.1092399E-01
    1       -5.597255   1.000000
    2        2.523533   1.000000
    3        4.628958   1.000000
    4        4.824900   1.000000
    5        8.041255   0.000000
    6        8.719471   0.000000
    7        9.540861   0.000000
    8       10.984898   0.000000
 
  0.3076923E+00  0.7692308E-01  0.3747003E-15  0.1092399E-01
    1       -5.142314   1.000000
    2        1.186876   1.000000
    3        4.409729   1.000000
    4        4.504814   1.000000
    5        7.882694   0.000000
    6        8.871701   0.000000
    7        9.652876   0.000000
    8       11.460747   0.000000
 
  0.3846154E+00  0.7692308E-01  0.3608225E-15  0.1092399E-01
    1       -4.591332   1.000000
    2       -0.006866   1.000000
    3        4.221708   1.000000
    4        4.287010   1.000000
    5        7.697256   0.000000
    6        8.887877   0.000000
    7        9.526597   0.000000
    8       12.305093   0.000000
 
  0.4615385E+00  0.7692308E-01  0.3608225E-15  0.1092399E-01
    1       -4.056401   1.000000
    2       -0.916250   1.000000
    3        4.008183   1.000000
    4        4.264880   1.000000
    5        7.578588   0.000000
    6        8.870925   0.000000
    7        9.341432   0.000000
    8       13.254440   0.000000
 
 -0.4615385E+00  0.7692308E-01  0.3885781E-15  0.1092399E-01
    1       -3.860879   1.000000
    2       -1.205730   1.000000
    3        3.880497   1.000000
    4        4.339585   1.000000
    5        7.549074   0.000000
    6        8.927269   0.000000
    7        9.206997   0.000000
    8       13.576464   0.000000
 
 -0.3846154E+00  0.7692308E-01  0.3608225E-15  0.1092399E-01
    1       -4.219835   1.000000
    2       -0.657649   1.000000
    3        3.849397   1.000000
    4        4.502304   1.000000
    5        7.613088   0.000000
    6        9.076500   0.000000
    7        9.151861   0.000000
    8       13.465026   0.000000
 
 -0.3076923E+00  0.7692308E-01  0.3885781E-15  0.1092399E-01
    1       -4.782491   1.000000
    2        0.371219   1.000000
    3        3.922886   1.000000
    4        4.739103   1.000000
    5        7.766407   0.000000
    6        9.130510   0.000000
    7        9.264489   0.000000
    8       12.833983   0.000000
 
 -0.2307692E+00  0.7692308E-01  0.3885781E-15  0.1092399E-01
    1       -5.307973   1.000000
    2        1.621245   1.000000
    3        4.106637   1.000000
    4        5.026778   1.000000
    5        7.995807   0.000000
    6        9.010125   0.000000
    7        9.325326   0.000000
    8       11.880336   0.000000
 
 -0.1538462E+00  0.7692308E-01  0.3747003E-15  0.1092399E-01
    1       -5.721029   1.000000
    2        2.966599   1.000000
    3        4.407916   1.000000
    4        5.318984   1.000000
    5        8.266533   0.000000
    6        8.698879   0.000000
    7        9.034973   0.000000
    8       12.124424   0.000000
 
 -0.7692308E-01  0.7692308E-01  0.3747003E-15  0.5461994E-02
    1       -5.995885   1.000000
    2        4.196351   1.000000
    3        4.882764   1.000000
    4        5.518911   1.000000
    5        8.384473   0.000000
    6        8.464381   0.000000
    7        8.515878   0.000000
    8       10.113263   0.000000
 
  0.1538462E+00  0.1538462E+00  0.3742002E-15  0.2730997E-02
    1       -5.793050   1.000000
    2        3.783268   1.000000
    3        4.567958   1.000000
    4        4.567958   1.000000
    5        7.425928   0.000000
    6        9.720152   0.000000
    7        9.767240   0.000000
    8       13.375396   0.000000
 
  0.2307692E+00  0.1538462E+00  0.3747003E-15  0.1092399E-01
    1       -5.518314   1.000000
    2        2.787362   1.000000
    3        4.252068   1.000000
    4        4.273569   1.000000
    5        7.420728   0.000000
    6        9.532508   0.000000
    7       10.190976   0.000000
    8       12.619963   0.000000
 
  0.3076923E+00  0.1538462E+00  0.3747003E-15  0.1092399E-01
    1       -5.105779   1.000000
    2        1.570095   1.000000
    3        3.890115   1.000000
    4        4.025342   1.000000
    5        7.647103   0.000000
    6        9.550270   0.000000
    7       10.114421   0.000000
    8       10.487484   0.000000
 
  0.3846154E+00  0.1538462E+00  0.3747003E-15  0.1092399E-01
    1       -4.580635   1.000000
    2        0.392355   1.000000
    3        3.495025   1.000000
    4        3.906967   1.000000
    5        7.709175   0.000000
    6        9.637195   0.000000
    7       10.400640   0.000000
    8       10.525148   0.000000
 
  0.4615385E+00  0.1538462E+00  0.3885781E-15  0.1092399E-01
    1       -4.017004   1.000000
    2       -0.598339   1.000000
    3        3.162812   1.000000
    4        3.902531   1.000000
    5        7.699857   0.000000
    6        9.521114   0.000000
    7       11.611703   0.000000
    8       15.097056   0.000000
 
 -0.4615385E+00  0.1538462E+00  0.3330669E-15  0.1092399E-01
    1       -3.658006   1.000000
    2       -1.129010   1.000000
    3        2.926617   1.000000
    4        4.009235   1.000000
    5        7.757129   0.000000
    6        9.456862   0.000000
    7        9.950170   0.000000
    8       12.967025   0.000000
 
 -0.3846154E+00  0.1538462E+00  0.3885781E-15  0.1092399E-01
    1       -3.861771   1.000000
    2       -0.832816   1.000000
    3        2.806569   1.000000
    4        4.216998   1.000000
    5        7.914085   0.000000
    6        9.486242   0.000000
    7        9.785964   0.000000
    8       13.630461   0.000000
 
 -0.3076923E+00  0.1538462E+00  0.3608225E-15  0.1092399E-01
    1       -4.399910   1.000000
    2        0.052475   1.000000
    3        2.822355   1.000000
    4        4.506341   1.000000
    5        8.153330   0.000000
    6        9.591141   0.000000
    7        9.649487   0.000000
    8       12.460040   0.000000
 
 -0.2307692E+00  0.1538462E+00  0.3608225E-15  0.1092399E-01
    1       -4.949031   1.000000
    2        1.159453   1.000000
    3        3.011306   1.000000
    4        4.841355   1.000000
    5        8.426846   0.000000
    6        9.412784   0.000000
    7        9.623112   0.000000
    8       11.519976   0.000000
 
 -0.1538462E+00  0.1538462E+00  0.3885781E-15  0.5461994E-02
    1       -5.400977   1.000000
    2        2.225720   1.000000
    3        3.493280   1.000000
    4        5.152909   1.000000
    5        8.610893   0.000000
    6        9.011067   0.000000
    7        9.271125   0.000000
    8       11.186731   0.000000
 
  0.2307692E+00  0.2307692E+00  0.3742002E-15  0.2730997E-02
    1       -5.291382   1.000000
    2        2.439969   1.000000
    3        3.913810   1.000000
    4        3.913810   1.000000
    5        6.888270   0.000000
    6        9.036392   0.000000
    7       10.977632   0.000000
    8       10.977632   0.000000
 
  0.3076923E+00  0.2307692E+00  0.3816392E-15  0.1092399E-01
    1       -4.923404   1.000000
    2        1.591041   1.000000
    3        3.515857   1.000000
    4        3.665306   1.000000
    5        6.932285   0.000000
    6        8.668351   0.000000
    7       11.246942   0.000000
    8       11.460110   0.000000
 
  0.3846154E+00  0.2307692E+00  0.3608225E-15  0.1092399E-01
    1       -4.431895   1.000000
    2        0.603062   1.000000
    3        2.979015   1.000000
    4        3.528963   1.000000
    5        7.160106   0.000000
    6        8.923840   0.000000
    7       11.124314   0.000000
    8       11.517675   0.000000
 
  0.4615385E+00  0.2307692E+00  0.3747003E-15  0.1092399E-01
    1       -3.865605   1.000000
    2       -0.339565   1.000000
    3        2.482589   1.000000
    4        3.512879   1.000000
    5        7.239434   0.000000
    6        9.861444   0.000000
    7       10.950064   0.000000
    8       11.311213   0.000000
 
 -0.4615385E+00  0.2307692E+00  0.2775558E-15  0.1092399E-01
    1       -3.392091   1.000000
    2       -1.005614   1.000000
    3        2.109270   1.000000
    4        3.616472   1.000000
    5        7.339749   0.000000
    6       10.734552   0.000000
    7       11.045612   0.000000
    8       11.256004   0.000000
 
 -0.3846154E+00  0.2307692E+00  0.3885781E-15  0.1092399E-01
    1       -3.416313   1.000000
    2       -0.966750   1.000000
    3        1.895349   1.000000
    4        3.831475   1.000000
    5        7.551456   0.000000
    6       10.689282   0.000000
    7       10.800450   0.000000
    8       12.729484   0.000000
 
 -0.3076923E+00  0.2307692E+00  0.3885781E-15  0.1092399E-01
    1       -3.905696   1.000000
    2       -0.279911   1.000000
    3        1.888032   1.000000
    4        4.139045   1.000000
    5        7.872091   0.000000
    6       10.529703   0.000000
    7       10.656231   0.000000
    8       12.445166   0.000000
 
 -0.2307692E+00  0.2307692E+00  0.3608225E-15  0.5461994E-02
    1       -4.466604   1.000000
    2        0.540149   1.000000
    3        2.208238   1.000000
    4        4.501078   1.000000
    5        8.238336   0.000000
    6       10.046545   0.000000
    7       10.371458   0.000000
    8       11.473472   0.000000
 
  0.3076923E+00  0.3076923E+00  0.3742002E-15  0.2730997E-02
    1       -4.599444   1.000000
    2        1.077448   1.000000
    3        3.389556   1.000000
    4        3.389556   1.000000
    5        6.473859   0.000000
    6        7.954551   0.000000
    7       12.328383   0.000000
    8       12.328383   0.000000
 
  0.3846154E+00  0.3076923E+00  0.3816392E-15  0.1092399E-01
    1       -4.145759   1.000000
    2        0.336170   1.000000
    3        2.962833   1.000000
    4        3.225187   1.000000
    5        6.589435   0.000000
    6        7.735219   0.000000
    7       12.626338   0.000000
    8       12.728894   0.000000
 
  0.4615385E+00  0.3076923E+00  0.3608225E-15  0.1092399E-01
    1       -3.594045   1.000000
    2       -0.432602   1.000000
    3        2.320926   1.000000
    4        3.183187   1.000000
    5        6.784005   0.000000
    6        8.297957   0.000000
    7       12.529955   0.000000
    8       12.643566   0.000000
 
 -0.4615385E+00  0.3076923E+00  0.3330669E-15  0.1092399E-01
    1       -3.053934   1.000000
    2       -1.079994   1.000000
    3        1.753011   1.000000
    4        3.265355   1.000000
    5        6.901559   0.000000
    6        9.477938   0.000000
    7       12.371259   0.000000
    8       12.373280   0.000000
 
 -0.3846154E+00  0.3076923E+00  0.2775558E-15  0.1092399E-01
    1       -2.917037   1.000000
    2       -1.220190   1.000000
    3        1.405545   1.000000
    4        3.465775   1.000000
    5        7.117751   0.000000
    6       10.916637   0.000000
    7       12.040215   0.000000
    8       12.263309   0.000000
 
 -0.3076923E+00  0.3076923E+00  0.3885781E-15  0.5461994E-02
    1       -3.350699   1.000000
    2       -0.756711   1.000000
    3        1.399953   1.000000
    4        3.768433   1.000000
    5        7.457611   0.000000
    6       11.472040   0.000000
    7       11.742104   0.000000
    8       12.512477   0.000000
 
  0.3846154E+00  0.3846154E+00  0.3742002E-15  0.2730997E-02
    1       -3.729136   1.000000
    2       -0.259325   1.000000
    3        3.028969   1.000000
    4        3.028969   1.000000
    5        6.252853   0.000000
    6        7.103209   0.000000
    7       13.734625   0.000000
    8       13.734625   0.000000
 
  0.4615385E+00  0.3846154E+00  0.3747003E-15  0.1092399E-01
    1       -3.201654   1.000000
    2       -0.918284   1.000000
    3        2.632552   1.000000
    4        2.954722   1.000000
    5        6.431640   0.000000
    6        7.095029   0.000000
    7       14.057071   0.000000
    8       17.159746   0.000000
 
 -0.4615385E+00  0.3846154E+00  0.2775558E-15  0.1092399E-01
    1       -2.632024   1.000000
    2       -1.508619   1.000000
    3        1.992112   1.000000
    4        3.006653   1.000000
    5        6.581479   0.000000
    6        7.987030   0.000000
    7       13.832440   0.000000
    8       13.985864   0.000000
 
 -0.3846154E+00  0.3846154E+00  0.2775558E-15  0.5461994E-02
    1       -2.464919   1.000000
    2       -1.632954   1.000000
    3        1.491354   1.000000
    4        3.181246   1.000000
    5        6.782663   0.000000
    6        9.352715   0.000000
    7       13.767366   0.000000
    8       13.786077   0.000000
 
  0.4615385E+00  0.4615385E+00  0.3742002E-15  0.2730997E-02
    1       -2.697976   1.000000
    2       -1.530577   1.000000
    3        2.845941   1.000000
    4        2.845942   1.000000
    5        6.265706   0.000000
    6        6.541813   0.000000
    7       15.134728   0.000000
    8       17.458871   0.000000
 
 -0.4615385E+00  0.4615385E+00  0.3330669E-15  0.5461994E-02
    1       -2.153583   1.000000
    2       -2.074161   1.000000
    3        2.522961   1.000000
    4        2.863639   1.000000
    5        6.416176   0.000000
    6        6.841584   0.000000
    7       15.092109   0.000000
    8       15.273834   0.000000
 
  0.2307692E+00  0.1538462E+00  0.7692308E-01  0.1092399E-01
    1       -5.694518   1.000000
    2        3.149404   1.000000
    3        4.192434   1.000000
    4        5.012528   1.000000
    5        7.959014   0.000000
    6        9.008631   0.000000
    7        9.552810   0.000000
    8       10.543628   0.000000
 
  0.3076923E+00  0.1538462E+00  0.7692308E-01  0.2184797E-01
    1       -5.326689   1.000000
    2        2.004834   1.000000
    3        3.696390   1.000000
    4        4.779794   1.000000
    5        8.196330   0.000000
    6        8.998322   0.000000
    7        9.965042   0.000000
    8       10.581427   0.000000
 
  0.3846154E+00  0.1538462E+00  0.7692308E-01  0.2184797E-01
    1       -4.834960   1.000000
    2        0.783481   1.000000
    3        3.420212   1.000000
    4        4.482154   1.000000
    5        8.221822   0.000000
    6        8.986880   0.000000
    7       10.067239   0.000000
    8       11.025049   0.000000
 
  0.4615385E+00  0.1538462E+00  0.7692308E-01  0.2184797E-01
    1       -4.269912   1.000000
    2       -0.305556   1.000000
    3        3.270038   1.000000
    4        4.229654   1.000000
    5        8.130430   0.000000
    6        8.876153   0.000000
    7        9.995619   0.000000
    8       11.993917   0.000000
 
 -0.4615385E+00  0.1538462E+00  0.7692308E-01  0.2184797E-01
    1       -3.796770   1.000000
    2       -1.048540   1.000000
    3        3.207180   1.000000
    4        4.085402   1.000000
    5        8.069687   0.000000
    6        8.777541   0.000000
    7        9.920389   0.000000
    8       13.206457   0.000000
 
  0.3076923E+00  0.2307692E+00  0.7692308E-01  0.1092399E-01
    1       -5.197488   1.000000
    2        2.044921   1.000000
    3        3.537359   1.000000
    4        4.191779   1.000000
    5        7.445398   0.000000
    6        9.313050   0.000000
    7       10.252630   0.000000
    8       10.863248   0.000000
 
  0.3846154E+00  0.2307692E+00  0.7692308E-01  0.2184797E-01
    1       -4.745133   1.000000
    2        1.053334   1.000000
    3        3.040495   1.000000
    4        3.939750   1.000000
    5        7.742412   0.000000
    6        9.414261   0.000000
    7       10.039992   0.000000
    8       16.151857   0.000000
 
  0.4615385E+00  0.2307692E+00  0.7692308E-01  0.2184797E-01
    1       -4.195350   1.000000
    2        0.024596   1.000000
    3        2.709121   1.000000
    4        3.710910   1.000000
    5        7.870787   0.000000
    6        9.744231   0.000000
    7       10.203222   0.000000
    8       11.265340   0.000000
 
 -0.4615385E+00  0.2307692E+00  0.7692308E-01  0.2184797E-01
    1       -3.656405   1.000000
    2       -0.813524   1.000000
    3        2.470456   1.000000
    4        3.620573   1.000000
    5        7.942548   0.000000
    6        9.478614   0.000000
    7       11.155621   0.000000
    8       11.441072   0.000000
 
 -0.3846154E+00  0.2307692E+00  0.7692308E-01  0.2184797E-01
    1       -3.461442   1.000000
    2       -1.081300   1.000000
    3        2.317293   1.000000
    4        3.692423   1.000000
    5        8.094540   0.000000
    6        9.284903   0.000000
    7       11.071498   0.000000
    8       12.869589   0.000000
 
 -0.3076923E+00  0.2307692E+00  0.7692308E-01  0.2184797E-01
    1       -3.833935   1.000000
    2       -0.549435   1.000000
    3        2.279967   1.000000
    4        3.904199   1.000000
    5        8.345534   0.000000
    6        9.172729   0.000000
    7       11.009732   0.000000
    8       11.855191   0.000000
 
 -0.2307692E+00  0.2307692E+00  0.7692308E-01  0.2184797E-01
    1       -4.398209   1.000000
    2        0.368917   1.000000
    3        2.413888   1.000000
    4        4.213360   1.000000
    5        8.654302   0.000000
    6        9.066480   0.000000
    7       10.686567   0.000000
    8       11.017369   0.000000
 
 -0.1538462E+00  0.2307692E+00  0.7692308E-01  0.1092399E-01
    1       -4.919019   1.000000
    2        1.306787   1.000000
    3        2.841524   1.000000
    4        4.549058   1.000000
    5        8.676260   0.000000
    6        8.952055   0.000000
    7       10.337841   0.000000
    8       10.576522   0.000000
 
  0.3846154E+00  0.3076923E+00  0.7692308E-01  0.1092399E-01
    1       -4.513532   1.000000
    2        0.880408   1.000000
    3        3.023678   1.000000
    4        3.456787   1.000000
    5        7.039088   0.000000
    6        8.341543   0.000000
    7       11.338179   0.000000
    8       12.269143   0.000000
 
  0.4615385E+00  0.3076923E+00  0.7692308E-01  0.2184797E-01
    1       -3.990774   1.000000
    2        0.065670   1.000000
    3        2.497822   1.000000
    4        3.235618   1.000000
    5        7.355020   0.000000
    6        8.647304   0.000000
    7       11.096695   0.000000
    8       12.628999   0.000000
 
 -0.4615385E+00  0.3076923E+00  0.7692308E-01  0.2184797E-01
    1       -3.424097   1.000000
    2       -0.710837   1.000000
    3        2.023651   1.000000
    4        3.168743   1.000000
    5        7.486204   0.000000
    6        9.673331   0.000000
    7       10.820488   0.000000
    8       12.599867   0.000000
 
 -0.3846154E+00  0.3076923E+00  0.7692308E-01  0.2184797E-01
    1       -3.067708   1.000000
    2       -1.145464   1.000000
    3        1.690074   1.000000
    4        3.267047   1.000000
    5        7.653292   0.000000
    6       10.464755   0.000000
    7       11.166255   0.000000
    8       12.462894   0.000000
 
 -0.3076923E+00  0.3076923E+00  0.7692308E-01  0.2184797E-01
    1       -3.313614   1.000000
    2       -0.842949   1.000000
    3        1.566759   1.000000
    4        3.503739   1.000000
    5        7.933192   0.000000
    6       10.290406   0.000000
    7       11.782866   0.000000
    8       12.688949   0.000000
 
 -0.2307692E+00  0.3076923E+00  0.7692308E-01  0.1092399E-01
    1       -3.861401   1.000000
    2       -0.186583   1.000000
    3        1.762906   1.000000
    4        3.841622   1.000000
    5        8.307995   0.000000
    6        9.881777   0.000000
    7       10.862958   0.000000
    8       14.156273   0.000000
 
  0.4615385E+00  0.3846154E+00  0.7692308E-01  0.1092399E-01
    1       -3.656777   1.000000
    2       -0.326913   1.000000
    3        2.689362   1.000000
    4        2.928453   1.000000
    5        6.810641   0.000000
    6        7.550027   0.000000
    7       12.577248   0.000000
    8       13.720927   0.000000
 
 -0.4615385E+00  0.3846154E+00  0.7692308E-01  0.2184797E-01
    1       -3.088861   1.000000
    2       -0.982878   1.000000
    3        2.125969   1.000000
    4        2.819562   1.000000
    5        7.108003   0.000000
    6        8.156581   0.000000
    7       12.305227   0.000000
    8       14.048798   0.000000
 
 -0.3846154E+00  0.3846154E+00  0.7692308E-01  0.2184797E-01
    1       -2.624022   1.000000
    2       -1.452982   1.000000
    3        1.592007   1.000000
    4        2.917117   1.000000
    5        7.273905   0.000000
    6        9.423177   0.000000
    7       12.018842   0.000000
    8       13.389799   0.000000
 
 -0.3076923E+00  0.3846154E+00  0.7692308E-01  0.1092399E-01
    1       -2.789622   1.000000
    2       -1.273797   1.000000
    3        1.346623   1.000000
    4        3.155611   1.000000
    5        7.547196   0.000000
    6       10.866716   0.000000
    7       11.662926   0.000000
    8       12.107538   0.000000
 
 -0.4615385E+00  0.4615385E+00  0.7692308E-01  0.1092399E-01
    1       -2.649061   1.000000
    2       -1.523332   1.000000
    3        2.553557   1.000000
    4        2.629459   1.000000
    5        6.800901   0.000000
    6        7.039418   0.000000
    7       13.899088   0.000000
    8       14.981547   0.000000
 
 -0.3846154E+00  0.4615385E+00  0.7692308E-01  0.1092399E-01
    1       -2.192583   1.000000
    2       -1.932875   1.000000
    3        1.993670   1.000000
    4        2.686980   1.000000
    5        7.023903   0.000000
    6        7.992529   0.000000
    7       13.528174   0.000000
    8       13.731758   0.000000
 
  0.4615385E+00  0.3076923E+00  0.1538462E+00  0.1092399E-01
    1       -4.261338   1.000000
    2        0.397600   1.000000
    3        2.351671   1.000000
    4        3.640799   1.000000
    5        8.307500   0.000000
    6        9.381215   0.000000
    7        9.747520   0.000000
    8       12.105917   0.000000
 
 -0.4615385E+00  0.3076923E+00  0.1538462E+00  0.2184797E-01
    1       -3.698842   1.000000
    2       -0.377469   1.000000
    3        1.976765   1.000000
    4        3.321828   1.000000
    5        8.669145   0.000000
    6        9.371095   0.000000
    7       10.105126   0.000000
    8       12.505662   0.000000
 
 -0.3846154E+00  0.3076923E+00  0.1538462E+00  0.2184797E-01
    1       -3.211057   1.000000
    2       -1.011091   1.000000
    3        1.831138   1.000000
    4        3.129910   1.000000
    5        8.828680   0.000000
    6        9.068114   0.000000
    7       11.382304   0.000000
    8       12.586538   0.000000
 
 -0.4615385E+00  0.3846154E+00  0.1538462E+00  0.1092399E-01
    1       -3.449730   1.000000
    2       -0.541721   1.000000
    3        2.071234   1.000000
    4        2.824929   1.000000
    5        8.086299   0.000000
    6        8.684498   0.000000
    7       10.769119   0.000000
    8       13.678531   0.000000
 
 -0.3846154E+00  0.3846154E+00  0.1538462E+00  0.2184797E-01
    1       -2.899338   1.000000
    2       -1.131864   1.000000
    3        1.730156   1.000000
    4        2.602364   1.000000
    5        8.422450   0.000000
    6        9.617492   0.000000
    7       10.477496   0.000000
    8       13.090386   0.000000
 
 -0.3076923E+00  0.3846154E+00  0.1538462E+00  0.2184797E-01
    1       -2.712953   1.000000
    2       -1.320650   1.000000
    3        1.521957   1.000000
    4        2.656185   1.000000
    5        8.645803   0.000000
    6       10.069467   0.000000
    7       11.133174   0.000000
    8       11.590705   0.000000
 
 -0.2307692E+00  0.3846154E+00  0.1538462E+00  0.1092399E-01
    1       -3.140906   1.000000
    2       -0.884576   1.000000
    3        1.568532   1.000000
    4        2.923546   1.000000
    5        8.966940   0.000000
    6        9.689682   0.000000
    7       10.303816   0.000000
    8       13.433506   0.000000
 
 -0.3846154E+00  0.4615385E+00  0.1538462E+00  0.1092399E-01
    1       -2.520252   1.000000
    2       -1.528342   1.000000
    3        2.034646   1.000000
    4        2.277313   1.000000
    5        8.056763   0.000000
    6        8.248138   0.000000
    7       11.972014   0.000000
    8       13.326009   0.000000
 
 -0.3076923E+00  0.4615385E+00  0.1538462E+00  0.1092399E-01
    1       -2.247693   1.000000
    2       -1.754096   1.000000
    3        1.661095   1.000000
    4        2.322404   1.000000
    5        8.336105   0.000000
    6        9.505417   0.000000
    7       11.681601   0.000000
    8       15.462883   0.000000
 
 -0.3076923E+00  0.4615385E+00  0.2307692E+00  0.1092399E-01
    1       -2.364254   1.000000
    2       -1.600807   1.000000
    3        1.680767   1.000000
    4        2.142432   1.000000
    5        9.641866   0.000000
    6        9.653805   0.000000
    7       10.288167   0.000000
    8       11.422926   0.000000
