Automatically generated mesh
      84
Reciprocal lattice
    0.00000000000000    0.00000000000000    0.00000000000000             1
    0.07692307692308    0.00000000000000    0.00000000000000             8
    0.15384615384615    0.00000000000000    0.00000000000000             8
    0.23076923076923    0.00000000000000    0.00000000000000             8
    0.30769230769231    0.00000000000000    0.00000000000000             8
    0.38461538461539    0.00000000000000    0.00000000000000             8
    0.46153846153846    0.00000000000000    0.00000000000000             8
    0.07692307692308    0.07692307692308    0.00000000000000             6
    0.15384615384615    0.07692307692308    0.00000000000000            24
    0.23076923076923    0.07692307692308    0.00000000000000            24
    0.30769230769231    0.07692307692308    0.00000000000000            24
    0.38461538461539    0.07692307692308    0.00000000000000            24
    0.46153846153846    0.07692307692308    0.00000000000000            24
   -0.46153846153846    0.07692307692308    0.00000000000000            24
   -0.38461538461538    0.07692307692308    0.00000000000000            24
   -0.30769230769231    0.07692307692308    0.00000000000000            24
   -0.23076923076923    0.07692307692308    0.00000000000000            24
   -0.15384615384615    0.07692307692308    0.00000000000000            24
   -0.07692307692308    0.07692307692308    0.00000000000000            12
    0.15384615384615    0.15384615384615    0.00000000000000             6
    0.23076923076923    0.15384615384615    0.00000000000000            24
    0.30769230769231    0.15384615384615    0.00000000000000            24
    0.38461538461539    0.15384615384615    0.00000000000000            24
    0.46153846153846    0.15384615384615    0.00000000000000            24
   -0.46153846153846    0.15384615384615    0.00000000000000            24
   -0.38461538461538    0.15384615384615    0.00000000000000            24
   -0.30769230769231    0.15384615384615    0.00000000000000            24
   -0.23076923076923    0.15384615384615    0.00000000000000            24
   -0.15384615384615    0.15384615384615    0.00000000000000            12
    0.23076923076923    0.23076923076923    0.00000000000000             6
    0.30769230769231    0.23076923076923    0.00000000000000            24
    0.38461538461539    0.23076923076923    0.00000000000000            24
    0.46153846153846    0.23076923076923    0.00000000000000            24
   -0.46153846153846    0.23076923076923    0.00000000000000            24
   -0.38461538461538    0.23076923076923    0.00000000000000            24
   -0.30769230769231    0.23076923076923    0.00000000000000            24
   -0.23076923076923    0.23076923076923    0.00000000000000            12
    0.30769230769231    0.30769230769231    0.00000000000000             6
    0.38461538461539    0.30769230769231    0.00000000000000            24
    0.46153846153846    0.30769230769231    0.00000000000000            24
   -0.46153846153846    0.30769230769231    0.00000000000000            24
   -0.38461538461538    0.30769230769231    0.00000000000000            24
   -0.30769230769231    0.30769230769231    0.00000000000000            12
    0.38461538461539    0.38461538461539    0.00000000000000             6
    0.46153846153846    0.38461538461539    0.00000000000000            24
   -0.46153846153846    0.38461538461539    0.00000000000000            24
   -0.38461538461538    0.38461538461539    0.00000000000000            12
    0.46153846153846    0.46153846153846    0.00000000000000             6
   -0.46153846153846    0.46153846153846    0.00000000000000            12
    0.23076923076923    0.15384615384615    0.07692307692308            24
    0.30769230769231    0.15384615384615    0.07692307692308            48
    0.38461538461539    0.15384615384615    0.07692307692308            48
    0.46153846153846    0.15384615384615    0.07692307692308            48
   -0.46153846153846    0.15384615384615    0.07692307692308            48
    0.30769230769231    0.23076923076923    0.07692307692308            24
    0.38461538461539    0.23076923076923    0.07692307692308            48
    0.46153846153846    0.23076923076923    0.07692307692308            48
   -0.46153846153846    0.23076923076923    0.07692307692308            48
   -0.38461538461538    0.23076923076923    0.07692307692308            48
   -0.30769230769231    0.23076923076923    0.07692307692308            48
   -0.23076923076923    0.23076923076923    0.07692307692308            48
   -0.15384615384615    0.23076923076923    0.07692307692308            24
    0.38461538461539    0.30769230769231    0.07692307692308            24
    0.46153846153846    0.30769230769231    0.07692307692308            48
   -0.46153846153846    0.30769230769231    0.07692307692308            48
   -0.38461538461538    0.30769230769231    0.07692307692308            48
   -0.30769230769231    0.30769230769231    0.07692307692308            48
   -0.23076923076923    0.30769230769231    0.07692307692308            24
    0.46153846153846    0.38461538461539    0.07692307692308            24
   -0.46153846153846    0.38461538461539    0.07692307692308            48
   -0.38461538461538    0.38461538461539    0.07692307692308            48
   -0.30769230769231    0.38461538461539    0.07692307692308            24
   -0.46153846153846    0.46153846153846    0.07692307692308            24
   -0.38461538461538    0.46153846153846    0.07692307692308            24
    0.46153846153846    0.30769230769231    0.15384615384615            24
   -0.46153846153846    0.30769230769231    0.15384615384615            48
   -0.38461538461538    0.30769230769231    0.15384615384615            48
   -0.46153846153846    0.38461538461539    0.15384615384615            24
   -0.38461538461538    0.38461538461539    0.15384615384615            48
   -0.30769230769231    0.38461538461539    0.15384615384615            48
   -0.23076923076923    0.38461538461539    0.15384615384615            24
   -0.38461538461538    0.46153846153846    0.15384615384615            24
   -0.30769230769231    0.46153846153846    0.15384615384615            24
   -0.30769230769231    0.46153846153846    0.23076923076923            24
Tetrahedra
       322    0.00007586102261
        24         1         2         2         8
        48         2         8         9        19
        48         2         3         9        19
        24         2         2         8        19
        48         3         9        10        18
        48         3         4        10        18
        48         3         9        18        19
        48         4        10        11        17
        48         4         5        11        17
        48         4        10        17        18
        48         5        11        12        16
        48         5         6        12        16
        48         5        11        16        17
        48         6        12        13        15
        48         6         7        13        15
        48         6        12        15        16
        48         7        13        14        14
        24         7         7        14        14
        48         7        13        14        15
        24         8         9         9        20
        24         8         9         9        19
        48         9        20        21        50
        48         9        10        21        50
        48         9        10        18        50
        24         9         9        20        50
        24         9         9        19        50
        48         9        18        19        50
        48        10        21        22        51
        48        10        11        22        51
        48        10        11        17        51
        48        10        21        50        51
        48        10        18        50        51
        48        10        17        18        51
        48        11        22        23        52
        48        11        12        23        52
        48        11        12        16        52
        48        11        22        51        52
        48        11        17        51        52
        48        11        16        17        52
        48        12        23        24        53
        48        12        13        24        53
        48        12        13        15        53
        48        12        23        52        53
        48        12        16        52        53
        48        12        15        16        53
        48        13        24        25        54
        48        13        14        25        54
        48        13        14        14        54
        48        13        24        53        54
        48        13        15        53        54
        48        13        14        15        54
        48        14        25        26        54
        48        14        15        26        54
        48        14        25        54        54
        24        14        14        54        54
        48        15        26        27        53
        48        15        16        27        53
        48        15        26        53        54
        48        16        27        28        52
        48        16        17        28        52
        48        16        27        52        53
        48        17        28        29        51
        48        17        18        29        51
        48        17        28        51        52
        24        18        18        29        50
        24        18        18        19        50
        48        18        29        50        51
        24        20        21        21        30
        24        20        21        21        50
        48        21        30        31        55
        48        21        22        31        55
        48        21        22        51        55
        24        21        21        30        55
        24        21        21        50        55
        48        21        50        51        55
        48        22        31        32        56
        48        22        23        32        56
        48        22        23        52        56
        48        22        31        55        56
        48        22        51        55        56
        48        22        51        52        56
        48        23        32        33        57
        48        23        24        33        57
        48        23        24        53        57
        48        23        32        56        57
        48        23        52        56        57
        48        23        52        53        57
        48        24        33        34        58
        48        24        25        34        58
        48        24        25        54        58
        48        24        33        57        58
        48        24        53        57        58
        48        24        53        54        58
        48        25        34        35        59
        48        25        26        35        59
        48        25        26        54        59
        48        25        34        58        59
        48        25        54        58        59
        48        25        54        54        59
        48        26        35        36        60
        48        26        27        36        60
        48        26        27        53        60
        48        26        35        59        60
        48        26        54        59        60
        48        26        53        54        60
        48        27        36        37        61
        48        27        28        37        61
        48        27        28        52        61
        48        27        36        60        61
        48        27        53        60        61
        48        27        52        53        61
        24        28        28        37        62
        24        28        28        29        62
        48        28        29        51        62
        48        28        37        61        62
        48        28        52        61        62
        48        28        51        52        62
        24        29        51        51        62
        24        29        50        51        51
        24        30        31        31        38
        24        30        31        31        55
        48        31        38        39        63
        48        31        32        39        63
        48        31        32        56        63
        24        31        31        38        63
        24        31        31        55        63
        48        31        55        56        63
        48        32        39        40        64
        48        32        33        40        64
        48        32        33        57        64
        48        32        39        63        64
        48        32        56        63        64
        48        32        56        57        64
        48        33        40        41        65
        48        33        34        41        65
        48        33        34        58        65
        48        33        40        64        65
        48        33        57        64        65
        48        33        57        58        65
        48        34        41        42        66
        48        34        35        42        66
        48        34        35        59        66
        48        34        41        65        66
        48        34        58        65        66
        48        34        58        59        66
        48        35        42        43        67
        48        35        36        43        67
        48        35        36        60        67
        48        35        42        66        67
        48        35        59        66        67
        48        35        59        60        67
        24        36        36        43        68
        24        36        36        37        68
        48        36        37        61        68
        48        36        43        67        68
        48        36        60        67        68
        48        36        60        61        68
        24        37        61        61        68
        24        37        61        61        62
        24        38        39        39        44
        24        38        39        39        63
        48        39        44        45        69
        48        39        40        45        69
        48        39        40        64        69
        24        39        39        44        69
        24        39        39        63        69
        48        39        63        64        69
        48        40        45        46        70
        48        40        41        46        70
        48        40        41        65        70
        48        40        45        69        70
        48        40        64        69        70
        48        40        64        65        70
        48        41        46        47        71
        48        41        42        47        71
        48        41        42        66        71
        48        41        46        70        71
        48        41        65        70        71
        48        41        65        66        71
        24        42        42        47        72
        24        42        42        43        72
        48        42        43        67        72
        48        42        47        71        72
        48        42        66        71        72
        48        42        66        67        72
        24        43        67        67        72
        24        43        67        67        68
        24        44        45        45        48
        24        44        45        45        69
        48        45        48        49        73
        48        45        46        49        73
        48        45        46        70        73
        24        45        45        48        73
        24        45        45        69        73
        48        45        69        70        73
        24        46        46        49        74
        24        46        46        47        74
        48        46        47        71        74
        48        46        49        73        74
        48        46        70        73        74
        48        46        70        71        74
        24        47        71        71        74
        24        47        71        71        72
        12        48        48        49        49
        24        48        49        49        73
        12        49        49        73        73
        24        49        73        73        74
        24        50        51        51        55
        48        51        55        56        62
        48        51        52        56        62
        24        51        51        55        62
        48        52        56        57        61
        48        52        53        57        61
        48        52        56        61        62
        48        53        57        58        60
        48        53        54        58        60
        48        53        57        60        61
        48        54        58        59        59
        24        54        54        59        59
        48        54        58        59        60
        24        55        56        56        63
        24        55        56        56        62
        48        56        63        64        75
        48        56        57        64        75
        48        56        57        61        75
        24        56        56        63        75
        24        56        56        62        75
        48        56        61        62        75
        48        57        64        65        76
        48        57        58        65        76
        48        57        58        60        76
        48        57        64        75        76
        48        57        61        75        76
        48        57        60        61        76
        48        58        65        66        77
        48        58        59        66        77
        48        58        59        59        77
        48        58        65        76        77
        48        58        60        76        77
        48        58        59        60        77
        48        59        66        67        77
        48        59        60        67        77
        48        59        66        77        77
        24        59        59        77        77
        48        60        67        68        76
        48        60        61        68        76
        48        60        67        76        77
        24        61        61        68        75
        24        61        61        62        75
        48        61        68        75        76
        24        63        64        64        69
        24        63        64        64        75
        48        64        69        70        78
        48        64        65        70        78
        48        64        65        76        78
        24        64        64        69        78
        24        64        64        75        78
        48        64        75        76        78
        48        65        70        71        79
        48        65        66        71        79
        48        65        66        77        79
        48        65        70        78        79
        48        65        76        78        79
        48        65        76        77        79
        48        66        71        72        80
        48        66        67        72        80
        48        66        67        77        80
        48        66        71        79        80
        48        66        77        79        80
        48        66        77        77        80
        24        67        67        72        81
        24        67        67        68        81
        48        67        68        76        81
        48        67        72        80        81
        48        67        77        80        81
        48        67        76        77        81
        24        68        76        76        81
        24        68        75        76        76
        24        69        70        70        73
        24        69        70        70        78
        48        70        73        74        82
        48        70        71        74        82
        48        70        71        79        82
        24        70        70        73        82
        24        70        70        78        82
        48        70        78        79        82
        24        71        71        74        83
        24        71        71        72        83
        48        71        72        80        83
        48        71        74        82        83
        48        71        79        82        83
        48        71        79        80        83
        24        72        80        80        83
        24        72        80        80        81
        12        73        73        74        74
        24        73        74        74        82
        12        74        74        82        82
        24        74        82        82        83
        24        75        76        76        78
        48        76        78        79        81
        48        76        77        79        81
        24        76        76        78        81
        48        77        79        80        80
        24        77        77        80        80
        48        77        79        80        81
        24        78        79        79        82
        24        78        79        79        81
        48        79        82        83        84
        48        79        80        83        84
        48        79        80        80        84
        24        79        79        82        84
        24        79        79        81        84
        48        79        80        81        84
        24        80        80        83        84
        24        80        80        81        84
        48        80        83        84        84
        24        80        80        84        84
        12        82        82        83        83
        24        82        83        83        84
        12        83        83        84        84
        24        83        84        84        84
         6        84        84        84        84
