 vasp.5.4.1 05Feb16 (build Dec 14 2021 15:22:51) complex                        
  
 executed on           IFC91_ompi date 2023.01.09  10:46:11
 running on   16 total cores
 distrk:  each k-point on   16 cores,    1 groups
 distr:  one band on NCORES_PER_BAND=   4 cores,    4 groups


--------------------------------------------------------------------------------------------------------


 INCAR:
 POTCAR:    PAW_PBE Si 05Jan2001                  
 POTCAR:    PAW_PBE Si 05Jan2001                  
   VRHFIN =Si: s2p2                                                             
   LEXCH  = PE                                                                  
   EATOM  =   103.0669 eV,    7.5752 Ry                                         
                                                                                
   TITEL  = PAW_PBE Si 05Jan2001                                                
   LULTRA =        F    use ultrasoft PP ?                                      
   IUNSCR =        1    unscreen: 0-lin 1-nonlin 2-no                           
   RPACOR =    1.500    partial core radius                                     
   POMASS =   28.085; ZVAL   =    4.000    mass and valenz                      
   RCORE  =    1.900    outmost cutoff radius                                   
   RWIGS  =    2.480; RWIGS  =    1.312    wigner-seitz radius (au A)           
   ENMAX  =  245.345; ENMIN  =  184.009 eV                                      
   ICORE  =        2    local potential                                         
   LCOR   =        T    correct aug charges                                     
   LPAW   =        T    paw PP                                                  
   EAUG   =  322.069                                                            
   DEXC   =    0.000                                                            
   RMAX   =    1.950    core radius for proj-oper                               
   RAUG   =    1.300    factor for augmentation sphere                          
   RDEP   =    1.993    radius for radial grids                                 
   RDEPT  =    1.837    core radius for aug-charge                              
                                                                                
   Atomic configuration                                                         
    6 entries                                                                   
     n  l   j            E        occ.                                          
     1  0  0.50     -1785.8828   2.0000                                         
     2  0  0.50      -139.4969   2.0000                                         
     2  1  1.50       -95.5546   6.0000                                         
     3  0  0.50       -10.8127   2.0000                                         
     3  1  0.50        -4.0811   2.0000                                         
     3  2  1.50        -4.0817   0.0000                                         
   Description                                                                  
     l       E           TYP  RCUT    TYP  RCUT                                 
     0    -10.8127223     23  1.900                                             
     0     -7.6451159     23  1.900                                             
     1     -4.0811372     23  1.900                                             
     1      2.4879257     23  1.900                                             
     2     -4.0817478      7  1.900                                             
  local pseudopotential read in
  partial core-charges read in
  partial kinetic energy density read in
  atomic valenz-charges read in
  non local Contribution for L=           0  read in
    real space projection operators read in
  non local Contribution for L=           0  read in
    real space projection operators read in
  non local Contribution for L=           1  read in
    real space projection operators read in
  non local Contribution for L=           1  read in
    real space projection operators read in
    PAW grid and wavefunctions read in
 
   number of l-projection  operators is LMAX  =           4
   number of lm-projection operators is LMMAX =           8
 

 ----------------------------------------------------------------------------- 
|                                                                             |
|  ADVICE TO THIS USER RUNNING 'VASP/VAMP'   (HEAR YOUR MASTER'S VOICE ...):  |
|                                                                             |
|      You have a (more or less) 'small supercell' and for smaller cells      |
|      it is recommended  to use the reciprocal-space projection scheme!      |
|      The real space optimization is not  efficient for small cells and it   |
|      is also less accurate ...                                              |
|      Therefore set LREAL=.FALSE. in the  INCAR file                         |
|                                                                             |
 ----------------------------------------------------------------------------- 

 Optimization of the real space projectors (new method)

 maximal supplied QI-value         = 19.84
 optimisation between [QCUT,QGAM] = [ 10.12, 20.44] = [ 28.68,116.96] Ry 
 Optimized for a Real-space Cutoff    1.38 Angstroem

   l    n(q)    QCUT    max X(q) W(low)/X(q) W(high)/X(q)  e(spline) 
   0      8    10.119   159.560    0.58E-04    0.11E-03    0.54E-07
   0      8    10.119   115.863    0.56E-04    0.11E-03    0.54E-07
   1      8    10.119    88.339    0.22E-03    0.17E-03    0.19E-06
   1      8    10.119    48.592    0.22E-03    0.17E-03    0.18E-06
  PAW_PBE Si 05Jan2001                  :
 energy of atom  1       EATOM= -103.0669
 kinetic energy error for atom=    0.0012 (will be added to EATOM!!)
 
 
 POSCAR: Si                                      
  positions in cartesian coordinates
  No initial velocities read in
 exchange correlation table for  LEXCH =        8
   RHO(1)=    0.500       N(1)  =     2000
   RHO(2)=  100.500       N(2)  =     4000
 


--------------------------------------------------------------------------------------------------------


 ion  position               nearest neighbor table
   1  0.000  0.000  0.000-   2 2.35   2 2.35   2 2.35   2 2.35
   2  0.250  0.250  0.250-   1 2.35   1 2.35   1 2.35   1 2.35
 
  LATTYP: Found a face centered cubic cell.
 ALAT       =     5.4300000000
  
  Lattice vectors:
  
 A1 = (   0.0000000000,   2.7150000000,   2.7150000000)
 A2 = (   2.7150000000,   0.0000000000,   2.7150000000)
 A3 = (   2.7150000000,   2.7150000000,   0.0000000000)


Analysis of symmetry for initial positions (statically):
=====================================================================
 Subroutine PRICEL returns:
 Original cell was already a primitive cell.
 

 Routine SETGRP: Setting up the symmetry group for a 
 face centered cubic supercell.


 Subroutine GETGRP returns: Found 48 space group operations
 (whereof 24 operations were pure point group operations)
 out of a pool of 48 trial point group operations.


The static configuration has the point symmetry T_d .
 The point group associated with its full space group is O_h .


Analysis of symmetry for dynamics (positions and initial velocities):
=====================================================================
 Subroutine PRICEL returns:
 Original cell was already a primitive cell.
 

 Routine SETGRP: Setting up the symmetry group for a 
 face centered cubic supercell.


 Subroutine GETGRP returns: Found 48 space group operations
 (whereof 24 operations were pure point group operations)
 out of a pool of 48 trial point group operations.


The dynamic configuration has the point symmetry T_d .
 The point group associated with its full space group is O_h .


 Subroutine INISYM returns: Found 48 space group operations
 (whereof 24 operations are pure point group operations),
 and found     1 'primitive' translations

 
 
 KPOINTS: KPOINTS created by Atomic Simulation Env

Automatic generation of k-mesh.
Space group operators:
 irot       det(A)        alpha          n_x          n_y          n_z        tau_x        tau_y        tau_z
    1     1.000000     0.000001     1.000000     0.000000     0.000000     0.000000     0.000000     0.000000
    2     1.000000   120.000000    -0.577350    -0.577350    -0.577350     0.000000     0.000000     0.000000
    3     1.000000   120.000000     0.577350     0.577350     0.577350     0.000000     0.000000     0.000000
    4    -1.000000    90.000000     0.000000     0.000000    -1.000000     0.000000     0.000000     0.000000
    5    -1.000000   180.000000     0.000000     0.707107     0.707107     0.000000     0.000000     0.000000
    6    -1.000000    90.000000     0.000000     1.000000     0.000000     0.000000     0.000000     0.000000
    7     1.000000   180.000000     0.000000     0.000000     1.000000     0.000000     0.000000     0.000000
    8     1.000000   120.000000    -0.577350     0.577350     0.577350     0.000000     0.000000     0.000000
    9     1.000000   120.000000    -0.577350     0.577350    -0.577350     0.000000     0.000000     0.000000
   10    -1.000000    90.000000     0.000000     0.000000     1.000000     0.000000     0.000000     0.000000
   11    -1.000000    90.000000    -1.000000     0.000000     0.000000     0.000000     0.000000     0.000000
   12    -1.000000   180.000000     0.707107     0.000000     0.707107     0.000000     0.000000     0.000000
   13     1.000000   120.000000     0.577350    -0.577350     0.577350     0.000000     0.000000     0.000000
   14     1.000000   120.000000    -0.577350    -0.577350     0.577350     0.000000     0.000000     0.000000
   15     1.000000   180.000000     1.000000     0.000000     0.000000     0.000000     0.000000     0.000000
   16    -1.000000    90.000000     0.000000    -1.000000     0.000000     0.000000     0.000000     0.000000
   17    -1.000000   180.000000     0.707107     0.707107     0.000000     0.000000     0.000000     0.000000
   18    -1.000000    90.000000     1.000000     0.000000     0.000000     0.000000     0.000000     0.000000
   19     1.000000   120.000000     0.577350    -0.577350    -0.577350     0.000000     0.000000     0.000000
   20     1.000000   180.000000     0.000000     1.000000     0.000000     0.000000     0.000000     0.000000
   21     1.000000   120.000000     0.577350     0.577350    -0.577350     0.000000     0.000000     0.000000
   22    -1.000000   180.000000     0.000000    -0.707107     0.707107     0.000000     0.000000     0.000000
   23    -1.000000   180.000000     0.707107    -0.707107     0.000000     0.000000     0.000000     0.000000
   24    -1.000000   180.000000     0.707107     0.000000    -0.707107     0.000000     0.000000     0.000000
   25    -1.000000     0.000001     1.000000     0.000000     0.000000     0.250000     0.250000     0.250000
   26    -1.000000   120.000000    -0.577350    -0.577350    -0.577350     0.250000     0.250000     0.250000
   27    -1.000000   120.000000     0.577350     0.577350     0.577350     0.250000     0.250000     0.250000
   28     1.000000    90.000000     0.000000     0.000000    -1.000000     0.250000     0.250000     0.250000
   29     1.000000   180.000000     0.000000     0.707107     0.707107     0.250000     0.250000     0.250000
   30     1.000000    90.000000     0.000000     1.000000     0.000000     0.250000     0.250000     0.250000
   31    -1.000000   180.000000     0.000000     0.000000     1.000000     0.250000     0.250000     0.250000
   32    -1.000000   120.000000    -0.577350     0.577350     0.577350     0.250000     0.250000     0.250000
   33    -1.000000   120.000000    -0.577350     0.577350    -0.577350     0.250000     0.250000     0.250000
   34     1.000000    90.000000     0.000000     0.000000     1.000000     0.250000     0.250000     0.250000
   35     1.000000    90.000000    -1.000000     0.000000     0.000000     0.250000     0.250000     0.250000
   36     1.000000   180.000000     0.707107     0.000000     0.707107     0.250000     0.250000     0.250000
   37    -1.000000   120.000000     0.577350    -0.577350     0.577350     0.250000     0.250000     0.250000
   38    -1.000000   120.000000    -0.577350    -0.577350     0.577350     0.250000     0.250000     0.250000
   39    -1.000000   180.000000     1.000000     0.000000     0.000000     0.250000     0.250000     0.250000
   40     1.000000    90.000000     0.000000    -1.000000     0.000000     0.250000     0.250000     0.250000
   41     1.000000   180.000000     0.707107     0.707107     0.000000     0.250000     0.250000     0.250000
   42     1.000000    90.000000     1.000000     0.000000     0.000000     0.250000     0.250000     0.250000
   43    -1.000000   120.000000     0.577350    -0.577350    -0.577350     0.250000     0.250000     0.250000
   44    -1.000000   180.000000     0.000000     1.000000     0.000000     0.250000     0.250000     0.250000
   45    -1.000000   120.000000     0.577350     0.577350    -0.577350     0.250000     0.250000     0.250000
   46     1.000000   180.000000     0.000000    -0.707107     0.707107     0.250000     0.250000     0.250000
   47     1.000000   180.000000     0.707107    -0.707107     0.000000     0.250000     0.250000     0.250000
   48     1.000000   180.000000     0.707107     0.000000    -0.707107     0.250000     0.250000     0.250000
 
 Subroutine IBZKPT returns following result:
 ===========================================
 
 Found     84 irreducible k-points:
 
 Following reciprocal coordinates:
            Coordinates               Weight
  0.000000  0.000000  0.000000      1.000000
  0.076923  0.000000  0.000000      8.000000
  0.153846  0.000000  0.000000      8.000000
  0.230769  0.000000  0.000000      8.000000
  0.307692  0.000000  0.000000      8.000000
  0.384615  0.000000  0.000000      8.000000
  0.461538  0.000000  0.000000      8.000000
  0.076923  0.076923  0.000000      6.000000
  0.153846  0.076923  0.000000     24.000000
  0.230769  0.076923  0.000000     24.000000
  0.307692  0.076923  0.000000     24.000000
  0.384615  0.076923  0.000000     24.000000
  0.461538  0.076923  0.000000     24.000000
 -0.461538  0.076923  0.000000     24.000000
 -0.384615  0.076923  0.000000     24.000000
 -0.307692  0.076923  0.000000     24.000000
 -0.230769  0.076923  0.000000     24.000000
 -0.153846  0.076923  0.000000     24.000000
 -0.076923  0.076923  0.000000     12.000000
  0.153846  0.153846  0.000000      6.000000
  0.230769  0.153846  0.000000     24.000000
  0.307692  0.153846  0.000000     24.000000
  0.384615  0.153846  0.000000     24.000000
  0.461538  0.153846  0.000000     24.000000
 -0.461538  0.153846  0.000000     24.000000
 -0.384615  0.153846  0.000000     24.000000
 -0.307692  0.153846  0.000000     24.000000
 -0.230769  0.153846  0.000000     24.000000
 -0.153846  0.153846  0.000000     12.000000
  0.230769  0.230769  0.000000      6.000000
  0.307692  0.230769  0.000000     24.000000
  0.384615  0.230769  0.000000     24.000000
  0.461538  0.230769  0.000000     24.000000
 -0.461538  0.230769  0.000000     24.000000
 -0.384615  0.230769  0.000000     24.000000
 -0.307692  0.230769  0.000000     24.000000
 -0.230769  0.230769  0.000000     12.000000
  0.307692  0.307692  0.000000      6.000000
  0.384615  0.307692  0.000000     24.000000
  0.461538  0.307692  0.000000     24.000000
 -0.461538  0.307692  0.000000     24.000000
 -0.384615  0.307692  0.000000     24.000000
 -0.307692  0.307692  0.000000     12.000000
  0.384615  0.384615  0.000000      6.000000
  0.461538  0.384615  0.000000     24.000000
 -0.461538  0.384615  0.000000     24.000000
 -0.384615  0.384615  0.000000     12.000000
  0.461538  0.461538  0.000000      6.000000
 -0.461538  0.461538  0.000000     12.000000
  0.230769  0.153846  0.076923     24.000000
  0.307692  0.153846  0.076923     48.000000
  0.384615  0.153846  0.076923     48.000000
  0.461538  0.153846  0.076923     48.000000
 -0.461538  0.153846  0.076923     48.000000
  0.307692  0.230769  0.076923     24.000000
  0.384615  0.230769  0.076923     48.000000
  0.461538  0.230769  0.076923     48.000000
 -0.461538  0.230769  0.076923     48.000000
 -0.384615  0.230769  0.076923     48.000000
 -0.307692  0.230769  0.076923     48.000000
 -0.230769  0.230769  0.076923     48.000000
 -0.153846  0.230769  0.076923     24.000000
  0.384615  0.307692  0.076923     24.000000
  0.461538  0.307692  0.076923     48.000000
 -0.461538  0.307692  0.076923     48.000000
 -0.384615  0.307692  0.076923     48.000000
 -0.307692  0.307692  0.076923     48.000000
 -0.230769  0.307692  0.076923     24.000000
  0.461538  0.384615  0.076923     24.000000
 -0.461538  0.384615  0.076923     48.000000
 -0.384615  0.384615  0.076923     48.000000
 -0.307692  0.384615  0.076923     24.000000
 -0.461538  0.461538  0.076923     24.000000
 -0.384615  0.461538  0.076923     24.000000
  0.461538  0.307692  0.153846     24.000000
 -0.461538  0.307692  0.153846     48.000000
 -0.384615  0.307692  0.153846     48.000000
 -0.461538  0.384615  0.153846     24.000000
 -0.384615  0.384615  0.153846     48.000000
 -0.307692  0.384615  0.153846     48.000000
 -0.230769  0.384615  0.153846     24.000000
 -0.384615  0.461538  0.153846     24.000000
 -0.307692  0.461538  0.153846     24.000000
 -0.307692  0.461538  0.230769     24.000000
 
 Following cartesian coordinates:
            Coordinates               Weight
  0.000000  0.000000  0.000000      1.000000
 -0.014166  0.014166  0.014166      8.000000
 -0.028333  0.028333  0.028333      8.000000
 -0.042499  0.042499  0.042499      8.000000
 -0.056665  0.056665  0.056665      8.000000
 -0.070832  0.070832  0.070832      8.000000
 -0.084998  0.084998  0.084998      8.000000
  0.000000  0.000000  0.028333      6.000000
 -0.014166  0.014166  0.042499     24.000000
 -0.028333  0.028333  0.056665     24.000000
 -0.042499  0.042499  0.070832     24.000000
 -0.056665  0.056665  0.084998     24.000000
 -0.070832  0.070832  0.099164     24.000000
  0.099164 -0.099164 -0.070832     24.000000
  0.084998 -0.084998 -0.056665     24.000000
  0.070832 -0.070832 -0.042499     24.000000
  0.056665 -0.056665 -0.028333     24.000000
  0.042499 -0.042499 -0.014166     24.000000
  0.028333 -0.028333  0.000000     12.000000
  0.000000  0.000000  0.056665      6.000000
 -0.014166  0.014166  0.070832     24.000000
 -0.028333  0.028333  0.084998     24.000000
 -0.042499  0.042499  0.099164     24.000000
 -0.056665  0.056665  0.113331     24.000000
  0.113331 -0.113331 -0.056665     24.000000
  0.099164 -0.099164 -0.042499     24.000000
  0.084998 -0.084998 -0.028333     24.000000
  0.070832 -0.070832 -0.014166     24.000000
  0.056665 -0.056665  0.000000     12.000000
  0.000000  0.000000  0.084998      6.000000
 -0.014166  0.014166  0.099164     24.000000
 -0.028333  0.028333  0.113331     24.000000
 -0.042499  0.042499  0.127497     24.000000
  0.127497 -0.127497 -0.042499     24.000000
  0.113331 -0.113331 -0.028333     24.000000
  0.099164 -0.099164 -0.014166     24.000000
  0.084998 -0.084998  0.000000     12.000000
  0.000000  0.000000  0.113331      6.000000
 -0.014166  0.014166  0.127497     24.000000
 -0.028333  0.028333  0.141663     24.000000
  0.141663 -0.141663 -0.028333     24.000000
  0.127497 -0.127497 -0.014166     24.000000
  0.113331 -0.113331  0.000000     12.000000
  0.000000  0.000000  0.141663      6.000000
 -0.014166  0.014166  0.155829     24.000000
  0.155829 -0.155829 -0.014166     24.000000
  0.141663 -0.141663  0.000000     12.000000
  0.000000  0.000000  0.169996      6.000000
  0.169996 -0.169996  0.000000     12.000000
  0.000000  0.028333  0.056665     24.000000
 -0.014166  0.042499  0.070832     48.000000
 -0.028333  0.056665  0.084998     48.000000
 -0.042499  0.070832  0.099164     48.000000
  0.127497 -0.099164 -0.070832     48.000000
  0.000000  0.028333  0.084998     24.000000
 -0.014166  0.042499  0.099164     48.000000
 -0.028333  0.056665  0.113331     48.000000
  0.141663 -0.113331 -0.056665     48.000000
  0.127497 -0.099164 -0.042499     48.000000
  0.113331 -0.084998 -0.028333     48.000000
  0.099164 -0.070832 -0.014166     48.000000
  0.084998 -0.056665  0.000000     24.000000
 -0.000000  0.028333  0.113331     24.000000
 -0.014166  0.042499  0.127497     48.000000
  0.155829 -0.127497 -0.042499     48.000000
  0.141663 -0.113331 -0.028333     48.000000
  0.127497 -0.099164 -0.014166     48.000000
  0.113331 -0.084998  0.000000     24.000000
  0.000000  0.028333  0.141663     24.000000
  0.169996 -0.141663 -0.028333     48.000000
  0.155829 -0.127497 -0.014166     48.000000
  0.141663 -0.113331  0.000000     24.000000
  0.184162 -0.155829 -0.014166     24.000000
  0.169996 -0.141663  0.000000     24.000000
  0.000000  0.056665  0.113331     24.000000
  0.169996 -0.113331 -0.056665     48.000000
  0.155829 -0.099164 -0.042499     48.000000
  0.184162 -0.127497 -0.042499     24.000000
  0.169996 -0.113331 -0.028333     48.000000
  0.155829 -0.099164 -0.014166     48.000000
  0.141663 -0.084998  0.000000     24.000000
  0.184162 -0.127497 -0.014166     24.000000
  0.169996 -0.113331  0.000000     24.000000
  0.184162 -0.099164 -0.014166     24.000000
 
 TETIRR: Found    322 inequivalent tetrahedra from    13182


--------------------------------------------------------------------------------------------------------




 Dimension of arrays:
   k-points           NKPTS =     84   k-points in BZ     NKDIM =     84   number of bands    NBANDS=      8
   number of dos      NEDOS =    301   number of ions     NIONS =      2
   non local maximal  LDIM  =      4   non local SUM 2l+1 LMDIM =      8
   total plane-waves  NPLWV =  21952
   max r-space proj   IRMAX =   6094   max aug-charges    IRDMAX=  18535
   dimension x,y,z NGX =    28 NGY =   28 NGZ =   28
   dimension x,y,z NGXF=    56 NGYF=   56 NGZF=   56
   support grid    NGXF=    56 NGYF=   56 NGZF=   56
   ions per type =               2
 NGX,Y,Z   is equivalent  to a cutoff of  12.12, 12.12, 12.12 a.u.
 NGXF,Y,Z  is equivalent  to a cutoff of  24.25, 24.25, 24.25 a.u.


 I would recommend the setting:
   dimension x,y,z NGX =    25 NGY =   25 NGZ =   25
 SYSTEM =  unknown system                          
 POSCAR =  Si                                      

 Startparameter for this run:
   NWRITE =      2    write-flag & timer
   PREC   = accura    normal or accurate (medium, high low for compatibility)
   ISTART =      0    job   : 0-new  1-cont  2-samecut
   ICHARG =      2    charge: 1-file 2-atom 10-const
   ISPIN  =      1    spin polarized calculation?
   LNONCOLLINEAR =      F non collinear calculations
   LSORBIT =      F    spin-orbit coupling
   INIWAV =      1    electr: 0-lowe 1-rand  2-diag
   LASPH  =      F    aspherical Exc in radial PAW
   METAGGA=      F    non-selfconsistent MetaGGA calc.

 Electronic Relaxation 1
   ENCUT  =  400.0 eV  29.40 Ry    5.42 a.u.   6.26  6.26  6.26*2*pi/ulx,y,z
   ENINI  =  400.0     initial cutoff
   ENAUG  =  322.1 eV  augmentation charge cutoff
   NELM   =    500;   NELMIN=  6; NELMDL= -9     # of ELM steps 
   EDIFF  = 0.1E-05   stopping-criterion for ELM
   LREAL  =      T    real-space projection
   NLSPLINE    = F    spline interpolate recip. space projectors
   LCOMPAT=      F    compatible to vasp.4.4
   GGA_COMPAT  = T    GGA compatible to vasp.4.4-vasp.4.6
   LMAXPAW     = -100 max onsite density
   LMAXMIX     =    2 max onsite mixed and CHGCAR
   VOSKOWN=      0    Vosko Wilk Nusair interpolation
   ROPT   =   -0.00025
 Ionic relaxation
   EDIFFG = -.1E-01   stopping-criterion for IOM
   NSW    =    500    number of steps for IOM
   NBLOCK =      1;   KBLOCK =    500    inner block; outer block 
   IBRION =      2    ionic relax: 0-MD 1-quasi-New 2-CG
   NFREE  =      1    steps in history (QN), initial steepest desc. (CG)
   ISIF   =      3    stress and relaxation
   IWAVPR =     11    prediction:  0-non 1-charg 2-wave 3-comb
   ISYM   =      2    0-nonsym 1-usesym 2-fastsym
   LCORR  =      T    Harris-Foulkes like correction to forces

   POTIM  = 0.1500    time-step for ionic-motion
   TEIN   =    0.0    initial temperature
   TEBEG  =    0.0;   TEEND  =   0.0 temperature during run
   SMASS  =  -3.00    Nose mass-parameter (am)
   estimated Nose-frequenzy (Omega)   =  0.10E-29 period in steps =****** mass=  -0.337E-27a.u.
   SCALEE = 1.0000    scale energy and forces
   NPACO  =    256;   APACO  = 16.0  distance and # of slots for P.C.
   PSTRESS=    0.0 pullay stress

  Mass of Ions in am
   POMASS =  28.09
  Ionic Valenz
   ZVAL   =   4.00
  Atomic Wigner-Seitz radii
   RWIGS  =  -1.00
  virtual crystal weights 
   VCA    =   1.00
   NELECT =       8.0000    total number of electrons
   NUPDOWN=      -1.0000    fix difference up-down

 DOS related values:
   EMIN   =  10.00;   EMAX   =-10.00  energy-range for DOS
   EFERMI =   0.00
   ISMEAR =    -5;   SIGMA  =   0.20  broadening in eV -4-tet -1-fermi 0-gaus

 Electronic relaxation 2 (details)
   IALGO  =     48    algorithm
   LDIAG  =      T    sub-space diagonalisation (order eigenvalues)
   LSUBROT=      F    optimize rotation matrix (better conditioning)
   TURBO    =      0    0=normal 1=particle mesh
   IRESTART =      0    0=no restart 2=restart with 2 vectors
   NREBOOT  =      0    no. of reboots
   NMIN     =      0    reboot dimension
   EREF     =   0.00    reference energy to select bands
   IMIX   =      4    mixing-type and parameters
     AMIX     =   0.40;   BMIX     =  1.00
     AMIX_MAG =   1.60;   BMIX_MAG =  1.00
     AMIN     =   0.10
     WC   =   100.;   INIMIX=   1;  MIXPRE=   1;  MAXMIX= -45

 Intra band minimization:
   WEIMIN = 0.0010     energy-eigenvalue tresh-hold
   EBREAK =  0.31E-07  absolut break condition
   DEPER  =   0.30     relativ break condition  

   TIME   =   0.40     timestep for ELM

  volume/ion in A,a.u.               =      20.01       135.05
  Fermi-wavevector in a.u.,A,eV,Ry     =   0.957176  1.808800 12.465458  0.916185
  Thomas-Fermi vector in A             =   2.086170
 
 Write flags
   LWAVE  =      F    write WAVECAR
   LCHARG =      F    write CHGCAR
   LVTOT  =      F    write LOCPOT, total local potential
   LVHAR  =      F    write LOCPOT, Hartree potential only
   LELF   =      F    write electronic localiz. function (ELF)
   LORBIT =      0    0 simple, 1 ext, 2 COOP (PROOUT)


 Dipole corrections
   LMONO  =      F    monopole corrections only (constant potential shift)
   LDIPOL =      F    correct potential (dipole corrections)
   IDIPOL =      0    1-x, 2-y, 3-z, 4-all directions 
   EPSILON=  1.0000000 bulk dielectric constant

 Exchange correlation treatment:
   GGA     =    PE    GGA type
   LEXCH   =     8    internal setting for exchange type
   VOSKOWN=      0    Vosko Wilk Nusair interpolation
   LHFCALC =     F    Hartree Fock is set to
   LHFONE  =     F    Hartree Fock one center treatment
   AEXX    =    0.0000 exact exchange contribution

 Linear response parameters
   LEPSILON=     F    determine dielectric tensor
   LRPA    =     F    only Hartree local field effects (RPA)
   LNABLA  =     F    use nabla operator in PAW spheres
   LVEL    =     F    velocity operator in full k-point grid
   LINTERFAST=   F  fast interpolation
   KINTER  =     0    interpolate to denser k-point grid
   CSHIFT  =0.1000    complex shift for real part using Kramers Kronig
   OMEGAMAX=  -1.0    maximum frequency
   DEG_THRESHOLD= 0.2000000E-02 threshold for treating states as degnerate
   RTIME   =    0.100 relaxation time in fs

 Orbital magnetization related:
   ORBITALMAG=     F  switch on orbital magnetization
   LCHIMAG   =     F  perturbation theory with respect to B field
   DQ        =  0.001000  dq finite difference perturbation B field



--------------------------------------------------------------------------------------------------------


 conjugate gradient relaxation of ions
 charge density and potential will be updated during run
 non-spin polarized calculation
 RMM-DIIS sequential band-by-band
 perform sub-space diagonalisation
    before iterative eigenvector-optimisation
 modified Broyden-mixing scheme, WC =      100.0
 initial mixing is a Kerker type mixing with AMIX =  0.4000 and BMIX =      1.0000
 Hartree-type preconditioning will be used
 using additional bands            4
 real space projection scheme for non local part
 use partial core corrections
 calculate Harris-corrections to forces 
   (improved forces if not selfconsistent)
 use gradient corrections 
 use of overlap-Matrix (Vanderbilt PP)
 Fermi weights with tetrahedron method with Bloechl corrections


--------------------------------------------------------------------------------------------------------


  energy-cutoff  :      400.00
  volume of cell :       40.03
      direct lattice vectors                 reciprocal lattice vectors
     0.000000000  2.715000000  2.715000000    -0.184162063  0.184162063  0.184162063
     2.715000000  0.000000000  2.715000000     0.184162063 -0.184162063  0.184162063
     2.715000000  2.715000000  0.000000000     0.184162063  0.184162063 -0.184162063

  length of vectors
     3.839589822  3.839589822  3.839589822     0.318978049  0.318978049  0.318978049


 
 k-points in units of 2pi/SCALE and weight: KPOINTS created by Atomic Simulation Env
   0.00000000  0.00000000  0.00000000       0.000
  -0.01416631  0.01416631  0.01416631       0.004
  -0.02833263  0.02833263  0.02833263       0.004
  -0.04249894  0.04249894  0.04249894       0.004
  -0.05666525  0.05666525  0.05666525       0.004
  -0.07083156  0.07083156  0.07083156       0.004
  -0.08499788  0.08499788  0.08499788       0.004
   0.00000000  0.00000000  0.02833263       0.003
  -0.01416631  0.01416631  0.04249894       0.011
  -0.02833263  0.02833263  0.05666525       0.011
  -0.04249894  0.04249894  0.07083156       0.011
  -0.05666525  0.05666525  0.08499788       0.011
  -0.07083156  0.07083156  0.09916419       0.011
   0.09916419 -0.09916419 -0.07083156       0.011
   0.08499788 -0.08499788 -0.05666525       0.011
   0.07083156 -0.07083156 -0.04249894       0.011
   0.05666525 -0.05666525 -0.02833263       0.011
   0.04249894 -0.04249894 -0.01416631       0.011
   0.02833263 -0.02833263  0.00000000       0.005
   0.00000000  0.00000000  0.05666525       0.003
  -0.01416631  0.01416631  0.07083156       0.011
  -0.02833263  0.02833263  0.08499788       0.011
  -0.04249894  0.04249894  0.09916419       0.011
  -0.05666525  0.05666525  0.11333050       0.011
   0.11333050 -0.11333050 -0.05666525       0.011
   0.09916419 -0.09916419 -0.04249894       0.011
   0.08499788 -0.08499788 -0.02833263       0.011
   0.07083156 -0.07083156 -0.01416631       0.011
   0.05666525 -0.05666525  0.00000000       0.005
   0.00000000  0.00000000  0.08499788       0.003
  -0.01416631  0.01416631  0.09916419       0.011
  -0.02833263  0.02833263  0.11333050       0.011
  -0.04249894  0.04249894  0.12749681       0.011
   0.12749681 -0.12749681 -0.04249894       0.011
   0.11333050 -0.11333050 -0.02833263       0.011
   0.09916419 -0.09916419 -0.01416631       0.011
   0.08499788 -0.08499788  0.00000000       0.005
   0.00000000  0.00000000  0.11333050       0.003
  -0.01416631  0.01416631  0.12749681       0.011
  -0.02833263  0.02833263  0.14166313       0.011
   0.14166313 -0.14166313 -0.02833263       0.011
   0.12749681 -0.12749681 -0.01416631       0.011
   0.11333050 -0.11333050  0.00000000       0.005
   0.00000000  0.00000000  0.14166313       0.003
  -0.01416631  0.01416631  0.15582944       0.011
   0.15582944 -0.15582944 -0.01416631       0.011
   0.14166313 -0.14166313  0.00000000       0.005
   0.00000000  0.00000000  0.16999575       0.003
   0.16999575 -0.16999575  0.00000000       0.005
   0.00000000  0.02833263  0.05666525       0.011
  -0.01416631  0.04249894  0.07083156       0.022
  -0.02833263  0.05666525  0.08499788       0.022
  -0.04249894  0.07083156  0.09916419       0.022
   0.12749681 -0.09916419 -0.07083156       0.022
   0.00000000  0.02833263  0.08499788       0.011
  -0.01416631  0.04249894  0.09916419       0.022
  -0.02833263  0.05666525  0.11333050       0.022
   0.14166313 -0.11333050 -0.05666525       0.022
   0.12749681 -0.09916419 -0.04249894       0.022
   0.11333050 -0.08499788 -0.02833263       0.022
   0.09916419 -0.07083156 -0.01416631       0.022
   0.08499788 -0.05666525  0.00000000       0.011
  -0.00000000  0.02833263  0.11333050       0.011
  -0.01416631  0.04249894  0.12749681       0.022
   0.15582944 -0.12749681 -0.04249894       0.022
   0.14166313 -0.11333050 -0.02833263       0.022
   0.12749681 -0.09916419 -0.01416631       0.022
   0.11333050 -0.08499788  0.00000000       0.011
   0.00000000  0.02833263  0.14166313       0.011
   0.16999575 -0.14166313 -0.02833263       0.022
   0.15582944 -0.12749681 -0.01416631       0.022
   0.14166313 -0.11333050  0.00000000       0.011
   0.18416206 -0.15582944 -0.01416631       0.011
   0.16999575 -0.14166313  0.00000000       0.011
   0.00000000  0.05666525  0.11333050       0.011
   0.16999575 -0.11333050 -0.05666525       0.022
   0.15582944 -0.09916419 -0.04249894       0.022
   0.18416206 -0.12749681 -0.04249894       0.011
   0.16999575 -0.11333050 -0.02833263       0.022
   0.15582944 -0.09916419 -0.01416631       0.022
   0.14166313 -0.08499788  0.00000000       0.011
   0.18416206 -0.12749681 -0.01416631       0.011
   0.16999575 -0.11333050  0.00000000       0.011
   0.18416206 -0.09916419 -0.01416631       0.011
 
 k-points in reciprocal lattice and weights: KPOINTS created by Atomic Simulation Env
   0.00000000  0.00000000  0.00000000       0.000
   0.07692308  0.00000000  0.00000000       0.004
   0.15384615  0.00000000  0.00000000       0.004
   0.23076923  0.00000000  0.00000000       0.004
   0.30769231  0.00000000  0.00000000       0.004
   0.38461538  0.00000000  0.00000000       0.004
   0.46153846  0.00000000  0.00000000       0.004
   0.07692308  0.07692308  0.00000000       0.003
   0.15384615  0.07692308  0.00000000       0.011
   0.23076923  0.07692308  0.00000000       0.011
   0.30769231  0.07692308  0.00000000       0.011
   0.38461538  0.07692308  0.00000000       0.011
   0.46153846  0.07692308  0.00000000       0.011
  -0.46153846  0.07692308  0.00000000       0.011
  -0.38461538  0.07692308  0.00000000       0.011
  -0.30769231  0.07692308  0.00000000       0.011
  -0.23076923  0.07692308  0.00000000       0.011
  -0.15384615  0.07692308  0.00000000       0.011
  -0.07692308  0.07692308  0.00000000       0.005
   0.15384615  0.15384615  0.00000000       0.003
   0.23076923  0.15384615  0.00000000       0.011
   0.30769231  0.15384615  0.00000000       0.011
   0.38461538  0.15384615  0.00000000       0.011
   0.46153846  0.15384615  0.00000000       0.011
  -0.46153846  0.15384615  0.00000000       0.011
  -0.38461538  0.15384615  0.00000000       0.011
  -0.30769231  0.15384615  0.00000000       0.011
  -0.23076923  0.15384615  0.00000000       0.011
  -0.15384615  0.15384615  0.00000000       0.005
   0.23076923  0.23076923  0.00000000       0.003
   0.30769231  0.23076923  0.00000000       0.011
   0.38461538  0.23076923  0.00000000       0.011
   0.46153846  0.23076923  0.00000000       0.011
  -0.46153846  0.23076923  0.00000000       0.011
  -0.38461538  0.23076923  0.00000000       0.011
  -0.30769231  0.23076923  0.00000000       0.011
  -0.23076923  0.23076923  0.00000000       0.005
   0.30769231  0.30769231  0.00000000       0.003
   0.38461538  0.30769231  0.00000000       0.011
   0.46153846  0.30769231  0.00000000       0.011
  -0.46153846  0.30769231  0.00000000       0.011
  -0.38461538  0.30769231  0.00000000       0.011
  -0.30769231  0.30769231  0.00000000       0.005
   0.38461538  0.38461538  0.00000000       0.003
   0.46153846  0.38461538  0.00000000       0.011
  -0.46153846  0.38461538  0.00000000       0.011
  -0.38461538  0.38461538  0.00000000       0.005
   0.46153846  0.46153846  0.00000000       0.003
  -0.46153846  0.46153846  0.00000000       0.005
   0.23076923  0.15384615  0.07692308       0.011
   0.30769231  0.15384615  0.07692308       0.022
   0.38461538  0.15384615  0.07692308       0.022
   0.46153846  0.15384615  0.07692308       0.022
  -0.46153846  0.15384615  0.07692308       0.022
   0.30769231  0.23076923  0.07692308       0.011
   0.38461538  0.23076923  0.07692308       0.022
   0.46153846  0.23076923  0.07692308       0.022
  -0.46153846  0.23076923  0.07692308       0.022
  -0.38461538  0.23076923  0.07692308       0.022
  -0.30769231  0.23076923  0.07692308       0.022
  -0.23076923  0.23076923  0.07692308       0.022
  -0.15384615  0.23076923  0.07692308       0.011
   0.38461538  0.30769231  0.07692308       0.011
   0.46153846  0.30769231  0.07692308       0.022
  -0.46153846  0.30769231  0.07692308       0.022
  -0.38461538  0.30769231  0.07692308       0.022
  -0.30769231  0.30769231  0.07692308       0.022
  -0.23076923  0.30769231  0.07692308       0.011
   0.46153846  0.38461538  0.07692308       0.011
  -0.46153846  0.38461538  0.07692308       0.022
  -0.38461538  0.38461538  0.07692308       0.022
  -0.30769231  0.38461538  0.07692308       0.011
  -0.46153846  0.46153846  0.07692308       0.011
  -0.38461538  0.46153846  0.07692308       0.011
   0.46153846  0.30769231  0.15384615       0.011
  -0.46153846  0.30769231  0.15384615       0.022
  -0.38461538  0.30769231  0.15384615       0.022
  -0.46153846  0.38461538  0.15384615       0.011
  -0.38461538  0.38461538  0.15384615       0.022
  -0.30769231  0.38461538  0.15384615       0.022
  -0.23076923  0.38461538  0.15384615       0.011
  -0.38461538  0.46153846  0.15384615       0.011
  -0.30769231  0.46153846  0.15384615       0.011
  -0.30769231  0.46153846  0.23076923       0.011
 
 position of ions in fractional coordinates (direct lattice) 
   0.00000000  0.00000000  0.00000000
   0.25000000  0.25000000  0.25000000
 
 position of ions in cartesian coordinates  (Angst):
   0.00000000  0.00000000  0.00000000
   1.35750000  1.35750000  1.35750000
 


--------------------------------------------------------------------------------------------------------


 k-point  1 :   0.0000 0.0000 0.0000  plane waves:     725
 k-point  2 :   0.0769 0.0000 0.0000  plane waves:     731
 k-point  3 :   0.1538 0.0000 0.0000  plane waves:     712
 k-point  4 :   0.2308 0.0000 0.0000  plane waves:     733
 k-point  5 :   0.3077 0.0000 0.0000  plane waves:     745
 k-point  6 :   0.3846 0.0000 0.0000  plane waves:     739
 k-point  7 :   0.4615 0.0000 0.0000  plane waves:     730
 k-point  8 :   0.0769 0.0769 0.0000  plane waves:     729
 k-point  9 :   0.1538 0.0769 0.0000  plane waves:     721
 k-point 10 :   0.2308 0.0769 0.0000  plane waves:     728
 k-point 11 :   0.3077 0.0769 0.0000  plane waves:     733
 k-point 12 :   0.3846 0.0769 0.0000  plane waves:     738
 k-point 13 :   0.4615 0.0769 0.0000  plane waves:     729
 k-point 14 :  -0.4615 0.0769 0.0000  plane waves:     729
 k-point 15 :  -0.3846 0.0769 0.0000  plane waves:     736
 k-point 16 :  -0.3077 0.0769 0.0000  plane waves:     737
 k-point 17 :  -0.2308 0.0769 0.0000  plane waves:     730
 k-point 18 :  -0.1538 0.0769 0.0000  plane waves:     727
 k-point 19 :  -0.0769 0.0769 0.0000  plane waves:     721
 k-point 20 :   0.1538 0.1538 0.0000  plane waves:     721
 k-point 21 :   0.2308 0.1538 0.0000  plane waves:     728
 k-point 22 :   0.3077 0.1538 0.0000  plane waves:     725
 k-point 23 :   0.3846 0.1538 0.0000  plane waves:     725
 k-point 24 :   0.4615 0.1538 0.0000  plane waves:     724
 k-point 25 :  -0.4615 0.1538 0.0000  plane waves:     730
 k-point 26 :  -0.3846 0.1538 0.0000  plane waves:     733
 k-point 27 :  -0.3077 0.1538 0.0000  plane waves:     732
 k-point 28 :  -0.2308 0.1538 0.0000  plane waves:     728
 k-point 29 :  -0.1538 0.1538 0.0000  plane waves:     736
 k-point 30 :   0.2308 0.2308 0.0000  plane waves:     721
 k-point 31 :   0.3077 0.2308 0.0000  plane waves:     722
 k-point 32 :   0.3846 0.2308 0.0000  plane waves:     728
 k-point 33 :   0.4615 0.2308 0.0000  plane waves:     723
 k-point 34 :  -0.4615 0.2308 0.0000  plane waves:     722
 k-point 35 :  -0.3846 0.2308 0.0000  plane waves:     722
 k-point 36 :  -0.3077 0.2308 0.0000  plane waves:     722
 k-point 37 :  -0.2308 0.2308 0.0000  plane waves:     730
 k-point 38 :   0.3077 0.3077 0.0000  plane waves:     721
 k-point 39 :   0.3846 0.3077 0.0000  plane waves:     722
 k-point 40 :   0.4615 0.3077 0.0000  plane waves:     730
 k-point 41 :  -0.4615 0.3077 0.0000  plane waves:     722
 k-point 42 :  -0.3846 0.3077 0.0000  plane waves:     721
 k-point 43 :  -0.3077 0.3077 0.0000  plane waves:     722
 k-point 44 :   0.3846 0.3846 0.0000  plane waves:     725
 k-point 45 :   0.4615 0.3846 0.0000  plane waves:     729
 k-point 46 :  -0.4615 0.3846 0.0000  plane waves:     727
 k-point 47 :  -0.3846 0.3846 0.0000  plane waves:     722
 k-point 48 :   0.4615 0.4615 0.0000  plane waves:     740
 k-point 49 :  -0.4615 0.4615 0.0000  plane waves:     728
 k-point 50 :   0.2308 0.1538 0.0769  plane waves:     726
 k-point 51 :   0.3077 0.1538 0.0769  plane waves:     728
 k-point 52 :   0.3846 0.1538 0.0769  plane waves:     729
 k-point 53 :   0.4615 0.1538 0.0769  plane waves:     725
 k-point 54 :  -0.4615 0.1538 0.0769  plane waves:     728
 k-point 55 :   0.3077 0.2308 0.0769  plane waves:     731
 k-point 56 :   0.3846 0.2308 0.0769  plane waves:     731
 k-point 57 :   0.4615 0.2308 0.0769  plane waves:     729
 k-point 58 :  -0.4615 0.2308 0.0769  plane waves:     727
 k-point 59 :  -0.3846 0.2308 0.0769  plane waves:     725
 k-point 60 :  -0.3077 0.2308 0.0769  plane waves:     724
 k-point 61 :  -0.2308 0.2308 0.0769  plane waves:     728
 k-point 62 :  -0.1538 0.2308 0.0769  plane waves:     727
 k-point 63 :   0.3846 0.3077 0.0769  plane waves:     727
 k-point 64 :   0.4615 0.3077 0.0769  plane waves:     728
 k-point 65 :  -0.4615 0.3077 0.0769  plane waves:     726
 k-point 66 :  -0.3846 0.3077 0.0769  plane waves:     719
 k-point 67 :  -0.3077 0.3077 0.0769  plane waves:     726
 k-point 68 :  -0.2308 0.3077 0.0769  plane waves:     724
 k-point 69 :   0.4615 0.3846 0.0769  plane waves:     731
 k-point 70 :  -0.4615 0.3846 0.0769  plane waves:     736
 k-point 71 :  -0.3846 0.3846 0.0769  plane waves:     722
 k-point 72 :  -0.3077 0.3846 0.0769  plane waves:     721
 k-point 73 :  -0.4615 0.4615 0.0769  plane waves:     724
 k-point 74 :  -0.3846 0.4615 0.0769  plane waves:     730
 k-point 75 :   0.4615 0.3077 0.1538  plane waves:     730
 k-point 76 :  -0.4615 0.3077 0.1538  plane waves:     730
 k-point 77 :  -0.3846 0.3077 0.1538  plane waves:     725
 k-point 78 :  -0.4615 0.3846 0.1538  plane waves:     727
 k-point 79 :  -0.3846 0.3846 0.1538  plane waves:     726
 k-point 80 :  -0.3077 0.3846 0.1538  plane waves:     724
 k-point 81 :  -0.2308 0.3846 0.1538  plane waves:     724
 k-point 82 :  -0.3846 0.4615 0.1538  plane waves:     727
 k-point 83 :  -0.3077 0.4615 0.1538  plane waves:     721
 k-point 84 :  -0.3077 0.4615 0.2308  plane waves:     724

 maximum and minimum number of plane-waves per node :       194      168

 maximum number of plane-waves:       745
 maximum index in each direction: 
   IXMAX=    6   IYMAX=    6   IZMAX=    6
   IXMIN=   -6   IYMIN=   -6   IZMIN=   -6

 NGX is ok and might be reduce to  26
 NGY is ok and might be reduce to  26
 NGZ is ok and might be reduce to  26

 real space projection operators:
  total allocation   :        736.88 KBytes
  max/ min on nodes  :        185.31        183.12


 parallel 3D FFT for wavefunctions:
    minimum data exchange during FFTs selected (reduces bandwidth)
 parallel 3D FFT for charge:
    minimum data exchange during FFTs selected (reduces bandwidth)


 total amount of memory used by VASP on root node    32384. kBytes
========================================================================

   base      :      30000. kBytes
   nonlr-proj:        432. kBytes
   fftplans  :        584. kBytes
   grid      :        839. kBytes
   one-center:          3. kBytes
   wavefun   :        526. kBytes
 
     INWAV:  cpu time    0.0000: real time    0.0000
 Broyden mixing: mesh for mixing (old mesh)
   NGX = 13   NGY = 13   NGZ = 13
  (NGX  = 56   NGY  = 56   NGZ  = 56)
  gives a total of   2197 points

 initial charge density was supplied:
 charge density of overlapping atoms calculated
 number of electron       8.0000000 magnetization 
 keeping initial charge density in first step


--------------------------------------------------------------------------------------------------------


 Maximum index for non-local projection operator         1487
 Maximum index for augmentation-charges         1501 (set IRDMAX)


--------------------------------------------------------------------------------------------------------


 First call to EWALD:  gamma=   0.518
 Maximum number of real-space cells 3x 3x 3
 Maximum number of reciprocal cells 3x 3x 3

 FEWALD executed in parallel
    FEWALD:  cpu time    0.0063: real time    0.0063


----------------------------------------- Iteration    1(   1)  ---------------------------------------


    POTLOK:  cpu time    0.0255: real time    0.0300
    SETDIJ:  cpu time    0.0044: real time    0.0044
    EDDIAG:  cpu time    0.2458: real time    0.2506
  RMM-DIIS:  cpu time    2.5300: real time    2.1924
    ORTHCH:  cpu time    0.0278: real time    0.0278
 BZINTS: Fermi energy: 15.625980;  8.000000 electrons
         Band energy:  39.072990;  BLOECHL correction: -0.691278
       DOS:  cpu time    0.0231: real time    0.0232
    --------------------------------------------
      LOOP:  cpu time    2.8591: real time    2.5331

 eigenvalue-minimisations  :   672
 total energy-change (2. order) : 0.2558872E+02  (-0.1559447E+03)
 number of electron       8.0000000 magnetization 
 augmentation part        8.0000000 magnetization 

 Free energy of the ion-electron system (eV)
  ---------------------------------------------------
  alpha Z        PSCENC =         3.36414726
  Ewald energy   TEWEN  =      -228.56352493
  -Hartree energ DENC   =       -11.00108242
  -exchange      EXHF   =         0.00000000
  -V(xc)+E(xc)   XCENC  =       -18.60186697
  PAW double counting   =       176.24759923     -141.06103558
  entropy T*S    EENTRO =         0.00000000
  eigenvalues    EBANDS =        39.07299028
  atomic energy  EATOM  =       206.13149246
  Solvation  Ediel_sol  =         0.00000000
  ---------------------------------------------------
  free energy    TOTEN  =        25.58871934 eV

  energy without entropy =       25.58871934  energy(sigma->0) =       25.58871934


--------------------------------------------------------------------------------------------------------




----------------------------------------- Iteration    1(   2)  ---------------------------------------


    EDDIAG:  cpu time    0.2816: real time    0.2820
  RMM-DIIS:  cpu time    1.7785: real time    1.4459
    ORTHCH:  cpu time    0.0191: real time    0.0192
 BZINTS: Fermi energy:  8.316473;  8.000000 electrons
         Band energy:  10.876455;  BLOECHL correction: -0.343292
       DOS:  cpu time    0.0216: real time    0.0216
    --------------------------------------------
      LOOP:  cpu time    2.1291: real time    1.7998

 eigenvalue-minimisations  :   672
 total energy-change (2. order) :-0.2819654E+02  (-0.2632611E+02)
 number of electron       8.0000000 magnetization 
 augmentation part        8.0000000 magnetization 

 Free energy of the ion-electron system (eV)
  ---------------------------------------------------
  alpha Z        PSCENC =         3.36414726
  Ewald energy   TEWEN  =      -228.56352493
  -Hartree energ DENC   =       -11.00108242
  -exchange      EXHF   =         0.00000000
  -V(xc)+E(xc)   XCENC  =       -18.60186697
  PAW double counting   =       176.24759923     -141.06103558
  entropy T*S    EENTRO =         0.00000000
  eigenvalues    EBANDS =        10.87645457
  atomic energy  EATOM  =       206.13149246
  Solvation  Ediel_sol  =         0.00000000
  ---------------------------------------------------
  free energy    TOTEN  =        -2.60781638 eV

  energy without entropy =       -2.60781638  energy(sigma->0) =       -2.60781638


--------------------------------------------------------------------------------------------------------




----------------------------------------- Iteration    1(   3)  ---------------------------------------


    EDDIAG:  cpu time    0.2584: real time    0.2587
  RMM-DIIS:  cpu time    1.9733: real time    1.6454
    ORTHCH:  cpu time    0.0190: real time    0.0191
 BZINTS: Fermi energy:  6.836232;  8.000000 electrons
         Band energy:   4.843256;  BLOECHL correction: -0.077178
       DOS:  cpu time    0.0194: real time    0.0194
    --------------------------------------------
      LOOP:  cpu time    2.2962: real time    1.9713

 eigenvalue-minimisations  :   672
 total energy-change (2. order) :-0.6033198E+01  (-0.5107677E+01)
 number of electron       8.0000000 magnetization 
 augmentation part        8.0000000 magnetization 

 Free energy of the ion-electron system (eV)
  ---------------------------------------------------
  alpha Z        PSCENC =         3.36414726
  Ewald energy   TEWEN  =      -228.56352493
  -Hartree energ DENC   =       -11.00108242
  -exchange      EXHF   =         0.00000000
  -V(xc)+E(xc)   XCENC  =       -18.60186697
  PAW double counting   =       176.24759923     -141.06103558
  entropy T*S    EENTRO =         0.00000000
  eigenvalues    EBANDS =         4.84325645
  atomic energy  EATOM  =       206.13149246
  Solvation  Ediel_sol  =         0.00000000
  ---------------------------------------------------
  free energy    TOTEN  =        -8.64101450 eV

  energy without entropy =       -8.64101450  energy(sigma->0) =       -8.64101450


--------------------------------------------------------------------------------------------------------




----------------------------------------- Iteration    1(   4)  ---------------------------------------


    EDDIAG:  cpu time    0.2455: real time    0.2457
  RMM-DIIS:  cpu time    1.6758: real time    1.3460
    ORTHCH:  cpu time    0.0252: real time    0.0252
 BZINTS: Fermi energy:  6.404954;  8.000000 electrons
         Band energy:   3.043334;  BLOECHL correction: -0.003510
       DOS:  cpu time    0.0192: real time    0.0192
    --------------------------------------------
      LOOP:  cpu time    1.9914: real time    1.6656

 eigenvalue-minimisations  :   672
 total energy-change (2. order) :-0.1799922E+01  (-0.1195245E+01)
 number of electron       8.0000000 magnetization 
 augmentation part        8.0000000 magnetization 

 Free energy of the ion-electron system (eV)
  ---------------------------------------------------
  alpha Z        PSCENC =         3.36414726
  Ewald energy   TEWEN  =      -228.56352493
  -Hartree energ DENC   =       -11.00108242
  -exchange      EXHF   =         0.00000000
  -V(xc)+E(xc)   XCENC  =       -18.60186697
  PAW double counting   =       176.24759923     -141.06103558
  entropy T*S    EENTRO =         0.00000000
  eigenvalues    EBANDS =         3.04333436
  atomic energy  EATOM  =       206.13149246
  Solvation  Ediel_sol  =         0.00000000
  ---------------------------------------------------
  free energy    TOTEN  =       -10.44093659 eV

  energy without entropy =      -10.44093659  energy(sigma->0) =      -10.44093659


--------------------------------------------------------------------------------------------------------




----------------------------------------- Iteration    1(   5)  ---------------------------------------


    EDDIAG:  cpu time    0.2619: real time    0.2621
  RMM-DIIS:  cpu time    1.7126: real time    1.3876
    ORTHCH:  cpu time    0.0186: real time    0.0186
 BZINTS: Fermi energy:  5.913733;  8.000000 electrons
         Band energy:   2.606537;  BLOECHL correction:  0.000000
       DOS:  cpu time    0.0070: real time    0.0070
    --------------------------------------------
      LOOP:  cpu time    2.0236: real time    1.7023

 eigenvalue-minimisations  :   672
 total energy-change (2. order) :-0.4367972E+00  (-0.3244022E+00)
 number of electron       8.0000000 magnetization 
 augmentation part        8.0000000 magnetization 

 Free energy of the ion-electron system (eV)
  ---------------------------------------------------
  alpha Z        PSCENC =         3.36414726
  Ewald energy   TEWEN  =      -228.56352493
  -Hartree energ DENC   =       -11.00108242
  -exchange      EXHF   =         0.00000000
  -V(xc)+E(xc)   XCENC  =       -18.60186697
  PAW double counting   =       176.24759923     -141.06103558
  entropy T*S    EENTRO =         0.00000000
  eigenvalues    EBANDS =         2.60653717
  atomic energy  EATOM  =       206.13149246
  Solvation  Ediel_sol  =         0.00000000
  ---------------------------------------------------
  free energy    TOTEN  =       -10.87773378 eV

  energy without entropy =      -10.87773378  energy(sigma->0) =      -10.87773378


--------------------------------------------------------------------------------------------------------




----------------------------------------- Iteration    1(   6)  ---------------------------------------


    EDDIAG:  cpu time    0.2429: real time    0.2431
  RMM-DIIS:  cpu time    1.9593: real time    1.6267
    ORTHCH:  cpu time    0.0191: real time    0.0191
 BZINTS: Fermi energy:  5.663087;  8.000000 electrons
         Band energy:   2.498985;  BLOECHL correction:  0.000000
       DOS:  cpu time    0.0064: real time    0.0064
    --------------------------------------------
      LOOP:  cpu time    2.2392: real time    1.9100

 eigenvalue-minimisations  :   672
 total energy-change (2. order) :-0.1075526E+00  (-0.8784842E-01)
 number of electron       8.0000000 magnetization 
 augmentation part        8.0000000 magnetization 

 Free energy of the ion-electron system (eV)
  ---------------------------------------------------
  alpha Z        PSCENC =         3.36414726
  Ewald energy   TEWEN  =      -228.56352493
  -Hartree energ DENC   =       -11.00108242
  -exchange      EXHF   =         0.00000000
  -V(xc)+E(xc)   XCENC  =       -18.60186697
  PAW double counting   =       176.24759923     -141.06103558
  entropy T*S    EENTRO =         0.00000000
  eigenvalues    EBANDS =         2.49898456
  atomic energy  EATOM  =       206.13149246
  Solvation  Ediel_sol  =         0.00000000
  ---------------------------------------------------
  free energy    TOTEN  =       -10.98528639 eV

  energy without entropy =      -10.98528639  energy(sigma->0) =      -10.98528639


--------------------------------------------------------------------------------------------------------




----------------------------------------- Iteration    1(   7)  ---------------------------------------


    EDDIAG:  cpu time    0.2729: real time    0.2731
  RMM-DIIS:  cpu time    4.0682: real time    3.5530
    ORTHCH:  cpu time    0.0224: real time    0.0224
 BZINTS: Fermi energy:  5.313616;  8.000000 electrons
         Band energy:   2.463189;  BLOECHL correction:  0.000000
       DOS:  cpu time    0.0052: real time    0.0053
    --------------------------------------------
      LOOP:  cpu time    4.3836: real time    3.8718

 eigenvalue-minimisations  :  1352
 total energy-change (2. order) :-0.3579572E-01  (-0.3187035E-01)
 number of electron       8.0000000 magnetization 
 augmentation part        8.0000000 magnetization 

 Free energy of the ion-electron system (eV)
  ---------------------------------------------------
  alpha Z        PSCENC =         3.36414726
  Ewald energy   TEWEN  =      -228.56352493
  -Hartree energ DENC   =       -11.00108242
  -exchange      EXHF   =         0.00000000
  -V(xc)+E(xc)   XCENC  =       -18.60186697
  PAW double counting   =       176.24759923     -141.06103558
  entropy T*S    EENTRO =         0.00000000
  eigenvalues    EBANDS =         2.46318884
  atomic energy  EATOM  =       206.13149246
  Solvation  Ediel_sol  =         0.00000000
  ---------------------------------------------------
  free energy    TOTEN  =       -11.02108211 eV

  energy without entropy =      -11.02108211  energy(sigma->0) =      -11.02108211


--------------------------------------------------------------------------------------------------------




----------------------------------------- Iteration    1(   8)  ---------------------------------------


    EDDIAG:  cpu time    0.2659: real time    0.2662
  RMM-DIIS:  cpu time    3.4431: real time    2.9750
    ORTHCH:  cpu time    0.0257: real time    0.0257
 BZINTS: Fermi energy:  5.339058;  8.000000 electrons
         Band energy:   2.458915;  BLOECHL correction:  0.000000
       DOS:  cpu time    0.0053: real time    0.0053
    --------------------------------------------
      LOOP:  cpu time    3.7460: real time    3.2818

 eigenvalue-minimisations  :  1399
 total energy-change (2. order) :-0.4273772E-02  (-0.3592728E-02)
 number of electron       8.0000000 magnetization 
 augmentation part        8.0000000 magnetization 

 Free energy of the ion-electron system (eV)
  ---------------------------------------------------
  alpha Z        PSCENC =         3.36414726
  Ewald energy   TEWEN  =      -228.56352493
  -Hartree energ DENC   =       -11.00108242
  -exchange      EXHF   =         0.00000000
  -V(xc)+E(xc)   XCENC  =       -18.60186697
  PAW double counting   =       176.24759923     -141.06103558
  entropy T*S    EENTRO =         0.00000000
  eigenvalues    EBANDS =         2.45891507
  atomic energy  EATOM  =       206.13149246
  Solvation  Ediel_sol  =         0.00000000
  ---------------------------------------------------
  free energy    TOTEN  =       -11.02535588 eV

  energy without entropy =      -11.02535588  energy(sigma->0) =      -11.02535588


--------------------------------------------------------------------------------------------------------




----------------------------------------- Iteration    1(   9)  ---------------------------------------


    EDDIAG:  cpu time    0.3076: real time    0.3080
  RMM-DIIS:  cpu time    3.6912: real time    3.2628
    ORTHCH:  cpu time    0.0248: real time    0.0248
 BZINTS: Fermi energy:  5.344320;  8.000000 electrons
         Band energy:   2.458644;  BLOECHL correction:  0.000000
       DOS:  cpu time    0.0052: real time    0.0052
    CHARGE:  cpu time    0.1661: real time    0.0976
    MIXING:  cpu time    0.0121: real time    0.0061
    --------------------------------------------
      LOOP:  cpu time    4.2153: real time    3.7162

 eigenvalue-minimisations  :  1307
 total energy-change (2. order) :-0.2706373E-03  (-0.1967924E-03)
 number of electron       8.0000001 magnetization 
 augmentation part       -0.4708907 magnetization 

 Broyden mixing:
  rms(total) = 0.48717E+00    rms(broyden)= 0.48717E+00
  rms(prec ) = 0.95333E+00
  weight for this iteration     100.00

 Free energy of the ion-electron system (eV)
  ---------------------------------------------------
  alpha Z        PSCENC =         3.36414726
  Ewald energy   TEWEN  =      -228.56352493
  -Hartree energ DENC   =       -11.00108242
  -exchange      EXHF   =         0.00000000
  -V(xc)+E(xc)   XCENC  =       -18.60186697
  PAW double counting   =       176.24759923     -141.06103558
  entropy T*S    EENTRO =         0.00000000
  eigenvalues    EBANDS =         2.45864443
  atomic energy  EATOM  =       206.13149246
  Solvation  Ediel_sol  =         0.00000000
  ---------------------------------------------------
  free energy    TOTEN  =       -11.02562652 eV

  energy without entropy =      -11.02562652  energy(sigma->0) =      -11.02562652


--------------------------------------------------------------------------------------------------------




----------------------------------------- Iteration    1(  10)  ---------------------------------------


    POTLOK:  cpu time    0.0827: real time    0.0415
    SETDIJ:  cpu time    0.0095: real time    0.0048
    EDDIAG:  cpu time    0.4094: real time    0.2908
  RMM-DIIS:  cpu time    3.1114: real time    2.6754
    ORTHCH:  cpu time    0.0157: real time    0.0157
 BZINTS: Fermi energy:  5.507125;  8.000000 electrons
         Band energy:   3.954491;  BLOECHL correction:  0.000000
       DOS:  cpu time    0.0047: real time    0.0047
    CHARGE:  cpu time    0.1434: real time    0.0874
    MIXING:  cpu time    0.0153: real time    0.0077
    --------------------------------------------
      LOOP:  cpu time    3.7958: real time    3.1313

 eigenvalue-minimisations  :  1344
 total energy-change (2. order) : 0.1246796E+00  (-0.5300348E-02)
 number of electron       8.0000001 magnetization 
 augmentation part       -0.4649973 magnetization 

 Broyden mixing:
  rms(total) = 0.29853E+00    rms(broyden)= 0.29853E+00
  rms(prec ) = 0.56758E+00
  weight for this iteration     100.00

 eigenvalues of (default mixing * dielectric matrix)
  average eigenvalue GAMMA=   2.5725
  2.5725

 Free energy of the ion-electron system (eV)
  ---------------------------------------------------
  alpha Z        PSCENC =         3.36414726
  Ewald energy   TEWEN  =      -228.56352493
  -Hartree energ DENC   =       -12.49835045
  -exchange      EXHF   =         0.00000000
  -V(xc)+E(xc)   XCENC  =       -18.36499428
  PAW double counting   =       379.15322247     -344.07743017
  entropy T*S    EENTRO =         0.00000000
  eigenvalues    EBANDS =         3.95449069
  atomic energy  EATOM  =       206.13149246
  Solvation  Ediel_sol  =         0.00000000
  ---------------------------------------------------
  free energy    TOTEN  =       -10.90094694 eV

  energy without entropy =      -10.90094694  energy(sigma->0) =      -10.90094694


--------------------------------------------------------------------------------------------------------




----------------------------------------- Iteration    1(  11)  ---------------------------------------


    POTLOK:  cpu time    0.1484: real time    0.0745
    SETDIJ:  cpu time    0.0159: real time    0.0080
    EDDIAG:  cpu time    0.3384: real time    0.2566
  RMM-DIIS:  cpu time    2.6157: real time    2.2081
    ORTHCH:  cpu time    0.0209: real time    0.0209
 BZINTS: Fermi energy:  5.846154;  8.000000 electrons
         Band energy:   6.216495;  BLOECHL correction:  0.000000
       DOS:  cpu time    0.0047: real time    0.0047
    CHARGE:  cpu time    0.1299: real time    0.0772
    MIXING:  cpu time    0.0269: real time    0.0135
    --------------------------------------------
      LOOP:  cpu time    3.3054: real time    2.6676

 eigenvalue-minimisations  :  1344
 total energy-change (2. order) : 0.5667326E-01  (-0.1114334E-01)
 number of electron       8.0000001 magnetization 
 augmentation part       -0.4577839 magnetization 

 Broyden mixing:
  rms(total) = 0.18654E-01    rms(broyden)= 0.18654E-01
  rms(prec ) = 0.41411E-01
  weight for this iteration     100.00

 eigenvalues of (default mixing * dielectric matrix)
  average eigenvalue GAMMA=   2.1057
  1.8659  2.3455

 Free energy of the ion-electron system (eV)
  ---------------------------------------------------
  alpha Z        PSCENC =         3.36414726
  Ewald energy   TEWEN  =      -228.56352493
  -Hartree energ DENC   =       -14.95635314
  -exchange      EXHF   =         0.00000000
  -V(xc)+E(xc)   XCENC  =       -17.96805267
  PAW double counting   =       866.89717744     -831.96565525
  entropy T*S    EENTRO =         0.00000000
  eigenvalues    EBANDS =         6.21649515
  atomic energy  EATOM  =       206.13149246
  Solvation  Ediel_sol  =         0.00000000
  ---------------------------------------------------
  free energy    TOTEN  =       -10.84427368 eV

  energy without entropy =      -10.84427368  energy(sigma->0) =      -10.84427368


--------------------------------------------------------------------------------------------------------




----------------------------------------- Iteration    1(  12)  ---------------------------------------


    POTLOK:  cpu time    0.1143: real time    0.0574
    SETDIJ:  cpu time    0.0177: real time    0.0089
    EDDIAG:  cpu time    0.3587: real time    0.2703
  RMM-DIIS:  cpu time    4.0850: real time    3.6914
    ORTHCH:  cpu time    0.0200: real time    0.0200
 BZINTS: Fermi energy:  5.893938;  8.000000 electrons
         Band energy:   6.109127;  BLOECHL correction:  0.000000
       DOS:  cpu time    0.0052: real time    0.0052
    CHARGE:  cpu time    0.1242: real time    0.0873
    MIXING:  cpu time    0.0167: real time    0.0084
    --------------------------------------------
      LOOP:  cpu time    4.7482: real time    4.1542

 eigenvalue-minimisations  :  1344
 total energy-change (2. order) :-0.9405664E-03  (-0.1859607E-03)
 number of electron       8.0000001 magnetization 
 augmentation part       -0.4587458 magnetization 

 Broyden mixing:
  rms(total) = 0.76271E-02    rms(broyden)= 0.76271E-02
  rms(prec ) = 0.12715E-01
  weight for this iteration     100.00

 eigenvalues of (default mixing * dielectric matrix)
  average eigenvalue GAMMA=   2.3642
  3.0471  2.0228  2.0228

 Free energy of the ion-electron system (eV)
  ---------------------------------------------------
  alpha Z        PSCENC =         3.36414726
  Ewald energy   TEWEN  =      -228.56352493
  -Hartree energ DENC   =       -14.87717512
  -exchange      EXHF   =         0.00000000
  -V(xc)+E(xc)   XCENC  =       -17.96891300
  PAW double counting   =       876.65225152     -841.69261957
  entropy T*S    EENTRO =         0.00000000
  eigenvalues    EBANDS =         6.10912713
  atomic energy  EATOM  =       206.13149246
  Solvation  Ediel_sol  =         0.00000000
  ---------------------------------------------------
  free energy    TOTEN  =       -10.84521424 eV

  energy without entropy =      -10.84521424  energy(sigma->0) =      -10.84521424


--------------------------------------------------------------------------------------------------------




----------------------------------------- Iteration    1(  13)  ---------------------------------------


    POTLOK:  cpu time    0.1178: real time    0.0625
    SETDIJ:  cpu time    0.0162: real time    0.0081
    EDDIAG:  cpu time    0.3271: real time    0.2412
  RMM-DIIS:  cpu time    3.2352: real time    2.8148
    ORTHCH:  cpu time    0.0190: real time    0.0190
 BZINTS: Fermi energy:  5.897601;  8.000000 electrons
         Band energy:   6.128242;  BLOECHL correction:  0.000000
       DOS:  cpu time    0.0053: real time    0.0053
    CHARGE:  cpu time    0.2613: real time    0.1432
    MIXING:  cpu time    0.0052: real time    0.0026
    --------------------------------------------
      LOOP:  cpu time    3.9931: real time    3.3016

 eigenvalue-minimisations  :  1346
 total energy-change (2. order) :-0.1835250E-03  (-0.2381330E-04)
 number of electron       8.0000001 magnetization 
 augmentation part       -0.4589228 magnetization 

 Broyden mixing:
  rms(total) = 0.56435E-02    rms(broyden)= 0.56435E-02
  rms(prec ) = 0.63912E-02
  weight for this iteration     100.00

 eigenvalues of (default mixing * dielectric matrix)
  average eigenvalue GAMMA=   2.1508
  2.8940  2.3945  2.3945  0.9202

 Free energy of the ion-electron system (eV)
  ---------------------------------------------------
  alpha Z        PSCENC =         3.36414726
  Ewald energy   TEWEN  =      -228.56352493
  -Hartree energ DENC   =       -14.90609067
  -exchange      EXHF   =         0.00000000
  -V(xc)+E(xc)   XCENC  =       -17.96229207
  PAW double counting   =       878.25032228     -843.28769442
  entropy T*S    EENTRO =         0.00000000
  eigenvalues    EBANDS =         6.12824232
  atomic energy  EATOM  =       206.13149246
  Solvation  Ediel_sol  =         0.00000000
  ---------------------------------------------------
  free energy    TOTEN  =       -10.84539777 eV

  energy without entropy =      -10.84539777  energy(sigma->0) =      -10.84539777


--------------------------------------------------------------------------------------------------------




----------------------------------------- Iteration    1(  14)  ---------------------------------------


    POTLOK:  cpu time    0.0494: real time    0.0247
    SETDIJ:  cpu time    0.0085: real time    0.0042
    EDDIAG:  cpu time    0.4201: real time    0.2888
  RMM-DIIS:  cpu time    4.1601: real time    3.6316
    ORTHCH:  cpu time    0.0206: real time    0.0206
 BZINTS: Fermi energy:  5.916340;  8.000000 electrons
         Band energy:   6.140778;  BLOECHL correction:  0.000000
       DOS:  cpu time    0.0052: real time    0.0053
    CHARGE:  cpu time    0.1379: real time    0.0844
    MIXING:  cpu time    0.0554: real time    0.0277
    --------------------------------------------
      LOOP:  cpu time    4.8618: real time    4.0913

 eigenvalue-minimisations  :  1345
 total energy-change (2. order) :-0.2623905E-04  (-0.4319771E-05)
 number of electron       8.0000001 magnetization 
 augmentation part       -0.4589188 magnetization 

 Broyden mixing:
  rms(total) = 0.39286E-03    rms(broyden)= 0.39285E-03
  rms(prec ) = 0.89791E-03
  weight for this iteration     100.00

 eigenvalues of (default mixing * dielectric matrix)
  average eigenvalue GAMMA=   1.9829
  3.0535  2.5598  2.2031  0.9691  1.1292

 Free energy of the ion-electron system (eV)
  ---------------------------------------------------
  alpha Z        PSCENC =         3.36414726
  Ewald energy   TEWEN  =      -228.56352493
  -Hartree energ DENC   =       -14.91895986
  -exchange      EXHF   =         0.00000000
  -V(xc)+E(xc)   XCENC  =       -17.96111017
  PAW double counting   =       868.42001405     -833.45826123
  entropy T*S    EENTRO =         0.00000000
  eigenvalues    EBANDS =         6.14077840
  atomic energy  EATOM  =       206.13149246
  Solvation  Ediel_sol  =         0.00000000
  ---------------------------------------------------
  free energy    TOTEN  =       -10.84542401 eV

  energy without entropy =      -10.84542401  energy(sigma->0) =      -10.84542401


--------------------------------------------------------------------------------------------------------




----------------------------------------- Iteration    1(  15)  ---------------------------------------


    POTLOK:  cpu time    0.0887: real time    0.0444
    SETDIJ:  cpu time    0.0195: real time    0.0098
    EDDIAG:  cpu time    0.3461: real time    0.2614
  RMM-DIIS:  cpu time    3.6682: real time    3.0138
    ORTHCH:  cpu time    0.0217: real time    0.0217
 BZINTS: Fermi energy:  5.831891;  8.000000 electrons
         Band energy:   6.136864;  BLOECHL correction:  0.000000
       DOS:  cpu time    0.0047: real time    0.0047
    --------------------------------------------
      LOOP:  cpu time    4.1552: real time    3.3615

 eigenvalue-minimisations  :  1172
 total energy-change (2. order) : 0.2648839E-06  (-0.3159187E-06)
 number of electron       8.0000001 magnetization 
 augmentation part       -0.4589188 magnetization 

 Free energy of the ion-electron system (eV)
  ---------------------------------------------------
  alpha Z        PSCENC =         3.36414726
  Ewald energy   TEWEN  =      -228.56352493
  -Hartree energ DENC   =       -14.91529075
  -exchange      EXHF   =         0.00000000
  -V(xc)+E(xc)   XCENC  =       -17.96160557
  PAW double counting   =       867.93484614     -832.97235242
  entropy T*S    EENTRO =         0.00000000
  eigenvalues    EBANDS =         6.13686407
  atomic energy  EATOM  =       206.13149246
  Solvation  Ediel_sol  =         0.00000000
  ---------------------------------------------------
  free energy    TOTEN  =       -10.84542374 eV

  energy without entropy =      -10.84542374  energy(sigma->0) =      -10.84542374


--------------------------------------------------------------------------------------------------------




 average (electrostatic) potential at core
  the test charge radii are     0.9892
  (the norm of the test charge is              1.0000)
       1 -83.2447       2 -83.2447
 
 
 
 E-fermi :   5.8319     XC(G=0):  -9.4110     alpha+bet :-11.9845


 k-point     1 :       0.0000    0.0000    0.0000
  band No.  band energies     occupation 
      1      -6.1309      2.00000
      2       5.8294      2.00000
      3       5.8294      2.00000
      4       5.8294      2.00000
      5       8.3958      0.00000
      6       8.3958      0.00000
      7       8.6001      0.00000
      8      13.5514      0.00000

 k-point     2 :       0.0769    0.0000    0.0000
  band No.  band energies     occupation 
      1      -6.0533      2.00000
      2       5.0772      2.00000
      3       5.7053      2.00000
      4       5.7053      2.00000
      5       8.4501      0.00000
      6       8.5784      0.00000
      7       8.5784      0.00000
      8       9.7750      0.00000

 k-point     3 :       0.1538    0.0000    0.0000
  band No.  band energies     occupation 
      1      -5.8225      2.00000
      2       3.6927      2.00000
      3       5.4299      2.00000
      4       5.4299      2.00000
      5       8.2343      0.00000
      6       8.9763      0.00000
      7       8.9763      0.00000
      8      11.0620      0.00000

 k-point     4 :       0.2308    0.0000    0.0000
  band No.  band energies     occupation 
      1      -5.4460      2.00000
      2       2.2532      2.00000
      3       5.1374      2.00000
      4       5.1374      2.00000
      5       7.9348      0.00000
      6       9.2973      0.00000
      7       9.2973      0.00000
      8      12.5058      0.00000

 k-point     5 :       0.3077    0.0000    0.0000
  band No.  band energies     occupation 
      1      -4.9426      2.00000
      2       0.9089      2.00000
      3       4.8950      2.00000
      4       4.8950      2.00000
      5       7.6696      0.00000
      6       9.3613      0.00000
      7       9.3613      0.00000
      8      13.5678      0.00000

 k-point     6 :       0.3846    0.0000    0.0000
  band No.  band energies     occupation 
      1      -4.3642      2.00000
      2      -0.2448      2.00000
      3       4.7275      2.00000
      4       4.7275      2.00000
      5       7.4807      0.00000
      6       9.2682      0.00000
      7       9.2682      0.00000
      8      13.7103      0.00000

 k-point     7 :       0.4615    0.0000    0.0000
  band No.  band energies     occupation 
      1      -3.8805      2.00000
      2      -1.0198      2.00000
      3       4.6429      2.00000
      4       4.6429      2.00000
      5       7.3838      0.00000
      6       9.1831      0.00000
      7       9.1831      0.00000
      8      13.5791      0.00000

 k-point     8 :       0.0769    0.0769    0.0000
  band No.  band energies     occupation 
      1      -6.0274      2.00000
      2       5.2257      2.00000
      3       5.4536      2.00000
      4       5.4536      2.00000
      5       8.1585      0.00000
      6       8.8988      0.00000
      7       8.8988      0.00000
      8       9.7712      0.00000

 k-point     9 :       0.1538    0.0769    0.0000
  band No.  band energies     occupation 
      1      -5.8473      2.00000
      2       4.1051      2.00000
      3       5.1213      2.00000
      4       5.3103      2.00000
      5       8.1701      0.00000
      6       8.9926      0.00000
      7       9.3865      0.00000
      8      10.6312      0.00000

 k-point    10 :       0.2308    0.0769    0.0000
  band No.  band energies     occupation 
      1      -5.5183      2.00000
      2       2.7138      2.00000
      3       4.8192      2.00000
      4       5.0287      2.00000
      5       8.2892      0.00000
      6       8.9823      0.00000
      7       9.7854      0.00000
      8      11.2658      0.00000

 k-point    11 :       0.3077    0.0769    0.0000
  band No.  band energies     occupation 
      1      -5.0543      2.00000
      2       1.3546      2.00000
      3       4.5972      2.00000
      4       4.7041      2.00000
      5       8.1531      0.00000
      6       9.1058      0.00000
      7       9.8880      0.00000
      8      11.7076      0.00000

 k-point    12 :       0.3846    0.0769    0.0000
  band No.  band energies     occupation 
      1      -4.4911      2.00000
      2       0.1385      2.00000
      3       4.4165      2.00000
      4       4.4738      2.00000
      5       7.9739      0.00000
      6       9.1037      0.00000
      7       9.7486      0.00000
      8      12.5659      0.00000

 k-point    13 :       0.4615    0.0769    0.0000
  band No.  band energies     occupation 
      1      -3.9416      2.00000
      2      -0.7913      2.00000
      3       4.1990      2.00000
      4       4.4527      2.00000
      5       7.8580      0.00000
      6       9.0778      0.00000
      7       9.5540      0.00000
      8      13.5294      0.00000

 k-point    14 :      -0.4615    0.0769    0.0000
  band No.  band energies     occupation 
      1      -3.7393      2.00000
      2      -1.0890      2.00000
      3       4.0680      2.00000
      4       4.5299      2.00000
      5       7.8308      0.00000
      6       9.1321      0.00000
      7       9.4154      0.00000
      8      13.8353      0.00000

 k-point    15 :      -0.3846    0.0769    0.0000
  band No.  band energies     occupation 
      1      -4.1099      2.00000
      2      -0.5264      2.00000
      3       4.0345      2.00000
      4       4.6963      2.00000
      5       7.8968      0.00000
      6       9.2853      0.00000
      7       9.3617      0.00000
      8      13.7624      0.00000

 k-point    16 :      -0.3077    0.0769    0.0000
  band No.  band energies     occupation 
      1      -4.6866      2.00000
      2       0.5240      2.00000
      3       4.1069      2.00000
      4       4.9376      2.00000
      5       8.0514      0.00000
      6       9.3479      0.00000
      7       9.4833      0.00000
      8      13.0829      0.00000

 k-point    17 :      -0.2308    0.0769    0.0000
  band No.  band energies     occupation 
      1      -5.2233      2.00000
      2       1.7967      2.00000
      3       4.2910      2.00000
      4       5.2304      2.00000
      5       8.2809      0.00000
      6       9.2372      0.00000
      7       9.5591      0.00000
      8      12.2242      0.00000

 k-point    18 :      -0.1538    0.0769    0.0000
  band No.  band energies     occupation 
      1      -5.6445      2.00000
      2       3.1646      2.00000
      3       4.5942      2.00000
      4       5.5276      2.00000
      5       8.5483      0.00000
      6       8.9274      0.00000
      7       9.2800      0.00000
      8      12.2988      0.00000

 k-point    19 :      -0.0769    0.0769    0.0000
  band No.  band energies     occupation 
      1      -5.9245      2.00000
      2       4.4108      2.00000
      3       5.0754      2.00000
      4       5.7305      2.00000
      5       8.6085      0.00000
      6       8.7458      0.00000
      7       8.7480      0.00000
      8      10.5027      0.00000

 k-point    20 :       0.1538    0.1538    0.0000
  band No.  band energies     occupation 
      1      -5.7180      2.00000
      2       4.0147      2.00000
      3       4.7553      2.00000
      4       4.7553      2.00000
      5       7.6319      0.00000
      6       9.9738      0.00000
      7      10.1213      0.00000
      8      13.2394      0.00000

 k-point    21 :       0.2308    0.1538    0.0000
  band No.  band energies     occupation 
      1      -5.4381      2.00000
      2       2.9984      2.00000
      3       4.4337      2.00000
      4       4.4630      2.00000
[...]
      1      -5.6945      2.00000
      2       3.1494      2.00000
      3       4.1924      2.00000
      4       5.0125      2.00000
      5       7.9590      0.00000
      6       9.0086      0.00000
      7       9.5528      0.00000
      8      10.5436      0.00000

 k-point    51 :       0.3077    0.1538    0.0769
  band No.  band energies     occupation 
      1      -5.3267      2.00000
      2       2.0048      2.00000
      3       3.6964      2.00000
      4       4.7798      2.00000
      5       8.1963      0.00000
      6       8.9983      0.00000
      7       9.9650      0.00000
      8      10.5814      0.00000

 k-point    52 :       0.3846    0.1538    0.0769
  band No.  band energies     occupation 
      1      -4.8350      2.00000
      2       0.7835      2.00000
      3       3.4202      2.00000
      4       4.4822      2.00000
      5       8.2218      0.00000
      6       8.9869      0.00000
      7      10.0672      0.00000
      8      11.0250      0.00000

 k-point    53 :       0.4615    0.1538    0.0769
  band No.  band energies     occupation 
      1      -4.2699      2.00000
      2      -0.3056      2.00000
      3       3.2700      2.00000
      4       4.2297      2.00000
      5       8.1304      0.00000
      6       8.8762      0.00000
      7       9.9956      0.00000
      8      11.9939      0.00000

 k-point    54 :      -0.4615    0.1538    0.0769
  band No.  band energies     occupation 
      1      -3.7968      2.00000
      2      -1.0485      2.00000
      3       3.2072      2.00000
      4       4.0854      2.00000
      5       8.0697      0.00000
      6       8.7775      0.00000
      7       9.9204      0.00000
      8      13.2065      0.00000

 k-point    55 :       0.3077    0.2308    0.0769
  band No.  band energies     occupation 
      1      -5.1975      2.00000
      2       2.0449      2.00000
      3       3.5374      2.00000
      4       4.1918      2.00000
      5       7.4454      0.00000
      6       9.3131      0.00000
      7      10.2526      0.00000
      8      10.8632      0.00000

 k-point    56 :       0.3846    0.2308    0.0769
  band No.  band energies     occupation 
      1      -4.7451      2.00000
      2       1.0533      2.00000
      3       3.0405      2.00000
      4       3.9397      2.00000
      5       7.7424      0.00000
      6       9.4143      0.00000
      7      10.0400      0.00000
      8      16.1519      0.00000

 k-point    57 :       0.4615    0.2308    0.0769
  band No.  band energies     occupation 
      1      -4.1953      2.00000
      2       0.0246      2.00000
      3       2.7091      2.00000
      4       3.7109      2.00000
      5       7.8708      0.00000
      6       9.7442      0.00000
      7      10.2032      0.00000
      8      11.2653      0.00000

 k-point    58 :      -0.4615    0.2308    0.0769
  band No.  band energies     occupation 
      1      -3.6564      2.00000
      2      -0.8135      2.00000
      3       2.4705      2.00000
      4       3.6206      2.00000
      5       7.9425      0.00000
      6       9.4786      0.00000
      7      11.1556      0.00000
      8      11.4411      0.00000

 k-point    59 :      -0.3846    0.2308    0.0769
  band No.  band energies     occupation 
      1      -3.4614      2.00000
      2      -1.0813      2.00000
      3       2.3173      2.00000
      4       3.6924      2.00000
      5       8.0945      0.00000
      6       9.2849      0.00000
      7      11.0715      0.00000
      8      12.8696      0.00000

 k-point    60 :      -0.3077    0.2308    0.0769
  band No.  band energies     occupation 
      1      -3.8339      2.00000
      2      -0.5494      2.00000
      3       2.2800      2.00000
      4       3.9042      2.00000
      5       8.3455      0.00000
      6       9.1727      0.00000
      7      11.0097      0.00000
      8      11.8552      0.00000

 k-point    61 :      -0.2308    0.2308    0.0769
  band No.  band energies     occupation 
      1      -4.3982      2.00000
      2       0.3689      2.00000
      3       2.4139      2.00000
      4       4.2134      2.00000
      5       8.6543      0.00000
      6       9.0665      0.00000
      7      10.6866      0.00000
      8      11.0174      0.00000

 k-point    62 :      -0.1538    0.2308    0.0769
  band No.  band energies     occupation 
      1      -4.9190      2.00000
      2       1.3068      2.00000
      3       2.8415      2.00000
      4       4.5491      2.00000
      5       8.6763      0.00000
      6       8.9521      0.00000
      7      10.3378      0.00000
      8      10.5765      0.00000

 k-point    63 :       0.3846    0.3077    0.0769
  band No.  band energies     occupation 
      1      -4.5135      2.00000
      2       0.8804      2.00000
      3       3.0237      2.00000
      4       3.4568      2.00000
      5       7.0391      0.00000
      6       8.3415      0.00000
      7      11.3382      0.00000
      8      12.2691      0.00000

 k-point    64 :       0.4615    0.3077    0.0769
  band No.  band energies     occupation 
      1      -3.9908      2.00000
      2       0.0657      2.00000
      3       2.4978      2.00000
      4       3.2356      2.00000
      5       7.3550      0.00000
      6       8.6473      0.00000
      7      11.0967      0.00000
      8      12.6290      0.00000

 k-point    65 :      -0.4615    0.3077    0.0769
  band No.  band energies     occupation 
      1      -3.4241      2.00000
      2      -0.7108      2.00000
      3       2.0237      2.00000
      4       3.1687      2.00000
      5       7.4862      0.00000
      6       9.6733      0.00000
      7      10.8205      0.00000
      8      12.5999      0.00000

 k-point    66 :      -0.3846    0.3077    0.0769
  band No.  band energies     occupation 
      1      -3.0677      2.00000
      2      -1.1455      2.00000
      3       1.6901      2.00000
      4       3.2670      2.00000
      5       7.6533      0.00000
      6      10.4648      0.00000
      7      11.1663      0.00000
      8      12.4629      0.00000

 k-point    67 :      -0.3077    0.3077    0.0769
  band No.  band energies     occupation 
      1      -3.3136      2.00000
      2      -0.8429      2.00000
      3       1.5668      2.00000
      4       3.5037      2.00000
      5       7.9332      0.00000
      6      10.2904      0.00000
      7      11.7829      0.00000
      8      12.6889      0.00000

 k-point    68 :      -0.2308    0.3077    0.0769
  band No.  band energies     occupation 
      1      -3.8614      2.00000
      2      -0.1866      2.00000
      3       1.7629      2.00000
      4       3.8416      2.00000
      5       8.3080      0.00000
      6       9.8818      0.00000
      7      10.8630      0.00000
      8      14.1563      0.00000

 k-point    69 :       0.4615    0.3846    0.0769
  band No.  band energies     occupation 
      1      -3.6568      2.00000
      2      -0.3269      2.00000
      3       2.6894      2.00000
      4       2.9285      2.00000
      5       6.8106      0.00000
      6       7.5500      0.00000
      7      12.5772      0.00000
      8      13.7209      0.00000

 k-point    70 :      -0.4615    0.3846    0.0769
  band No.  band energies     occupation 
      1      -3.0889      2.00000
      2      -0.9829      2.00000
      3       2.1260      2.00000
      4       2.8196      2.00000
      5       7.1080      0.00000
      6       8.1566      0.00000
      7      12.3052      0.00000
      8      14.0488      0.00000

 k-point    71 :      -0.3846    0.3846    0.0769
  band No.  band energies     occupation 
      1      -2.6240      2.00000
      2      -1.4530      2.00000
      3       1.5920      2.00000
      4       2.9171      2.00000
      5       7.2739      0.00000
      6       9.4232      0.00000
      7      12.0188      0.00000
      8      13.3898      0.00000

 k-point    72 :      -0.3077    0.3846    0.0769
  band No.  band energies     occupation 
      1      -2.7896      2.00000
      2      -1.2738      2.00000
      3       1.3466      2.00000
      4       3.1556      2.00000
      5       7.5472      0.00000
      6      10.8667      0.00000
      7      11.6629      0.00000
      8      12.1075      0.00000

 k-point    73 :      -0.4615    0.4615    0.0769
  band No.  band energies     occupation 
      1      -2.6491      2.00000
      2      -1.5233      2.00000
      3       2.5536      2.00000
      4       2.6295      2.00000
      5       6.8009      0.00000
      6       7.0394      0.00000
      7      13.8991      0.00000
      8      14.9815      0.00000

 k-point    74 :      -0.3846    0.4615    0.0769
  band No.  band energies     occupation 
      1      -2.1926      2.00000
      2      -1.9329      2.00000
      3       1.9937      2.00000
      4       2.6870      2.00000
      5       7.0239      0.00000
      6       7.9925      0.00000
      7      13.5282      0.00000
      8      13.7318      0.00000

 k-point    75 :       0.4615    0.3077    0.1538
  band No.  band energies     occupation 
      1      -4.2613      2.00000
      2       0.3976      2.00000
      3       2.3517      2.00000
      4       3.6408      2.00000
      5       8.3075      0.00000
      6       9.3812      0.00000
      7       9.7475      0.00000
      8      12.1059      0.00000

 k-point    76 :      -0.4615    0.3077    0.1538
  band No.  band energies     occupation 
      1      -3.6988      2.00000
      2      -0.3775      2.00000
      3       1.9768      2.00000
      4       3.3218      2.00000
      5       8.6691      0.00000
      6       9.3711      0.00000
      7      10.1051      0.00000
      8      12.5057      0.00000

 k-point    77 :      -0.3846    0.3077    0.1538
  band No.  band energies     occupation 
      1      -3.2111      2.00000
      2      -1.0111      2.00000
      3       1.8311      2.00000
      4       3.1299      2.00000
      5       8.8287      0.00000
      6       9.0681      0.00000
      7      11.3823      0.00000
      8      12.5865      0.00000

 k-point    78 :      -0.4615    0.3846    0.1538
  band No.  band energies     occupation 
      1      -3.4497      2.00000
      2      -0.5417      2.00000
      3       2.0712      2.00000
      4       2.8249      2.00000
      5       8.0863      0.00000
      6       8.6845      0.00000
      7      10.7691      0.00000
      8      13.6785      0.00000

 k-point    79 :      -0.3846    0.3846    0.1538
  band No.  band energies     occupation 
      1      -2.8993      2.00000
      2      -1.1319      2.00000
      3       1.7302      2.00000
      4       2.6024      2.00000
      5       8.4224      0.00000
      6       9.6175      0.00000
      7      10.4775      0.00000
      8      13.0904      0.00000

 k-point    80 :      -0.3077    0.3846    0.1538
  band No.  band energies     occupation 
      1      -2.7130      2.00000
      2      -1.3207      2.00000
      3       1.5220      2.00000
      4       2.6562      2.00000
      5       8.6458      0.00000
      6      10.0695      0.00000
      7      11.1332      0.00000
      8      11.5907      0.00000

 k-point    81 :      -0.2308    0.3846    0.1538
  band No.  band energies     occupation 
      1      -3.1409      2.00000
      2      -0.8846      2.00000
      3       1.5685      2.00000
      4       2.9235      2.00000
      5       8.9669      0.00000
      6       9.6897      0.00000
      7      10.3038      0.00000
      8      13.4335      0.00000

 k-point    82 :      -0.3846    0.4615    0.1538
  band No.  band energies     occupation 
      1      -2.5203      2.00000
      2      -1.5283      2.00000
      3       2.0346      2.00000
      4       2.2773      2.00000
      5       8.0568      0.00000
      6       8.2481      0.00000
      7      11.9720      0.00000
      8      13.3260      0.00000

 k-point    83 :      -0.3077    0.4615    0.1538
  band No.  band energies     occupation 
      1      -2.2477      2.00000
      2      -1.7541      2.00000
      3       1.6611      2.00000
      4       2.3224      2.00000
      5       8.3361      0.00000
      6       9.5054      0.00000
      7      11.6816      0.00000
      8      15.4629      0.00000

 k-point    84 :      -0.3077    0.4615    0.2308
  band No.  band energies     occupation 
      1      -2.3643      2.00000
      2      -1.6008      2.00000
      3       1.6808      2.00000
      4       2.1424      2.00000
      5       9.6419      0.00000
      6       9.6538      0.00000
      7      10.2882      0.00000
      8      11.4229      0.00000


--------------------------------------------------------------------------------------------------------


 soft charge-density along one line, spin component           1
         0         1         2         3         4         5         6         7         8         9
 total charge-density along one line
 
 pseudopotential strength for first ion, spin component:           1
 18.437  25.723   0.000   0.000   0.000   0.000   0.000   0.000
 25.723  35.893   0.000   0.000   0.000   0.000   0.000   0.000
  0.000   0.000   4.181  -0.000  -0.000   7.790  -0.000  -0.000
  0.000   0.000  -0.000   4.181  -0.000  -0.000   7.790  -0.000
  0.000   0.000  -0.000  -0.000   4.181  -0.000  -0.000   7.790
  0.000   0.000   7.790  -0.000  -0.000  14.528  -0.000  -0.000
  0.000   0.000  -0.000   7.790  -0.000  -0.000  14.528  -0.000
  0.000   0.000  -0.000  -0.000   7.790  -0.000  -0.000  14.528
 total augmentation occupancy for first ion, spin component:           1
  5.523  -2.061   0.000   0.000   0.000   0.000   0.000   0.000
 -2.061   0.886   0.000   0.000   0.000  -0.000  -0.000  -0.000
  0.000   0.000   2.899  -0.000   0.000  -0.647   0.000  -0.000
  0.000   0.000  -0.000   2.899  -0.000   0.000  -0.647   0.000
  0.000   0.000   0.000  -0.000   2.899  -0.000  -0.000  -0.647
  0.000  -0.000  -0.647   0.000  -0.000   0.153   0.000   0.000
  0.000  -0.000   0.000  -0.647  -0.000  -0.000   0.153   0.000
  0.000  -0.000  -0.000  -0.000  -0.647   0.000   0.000   0.153


------------------------ aborting loop because EDIFF is reached ----------------------------------------


    CHARGE:  cpu time    0.1826: real time    0.1005
    FORLOC:  cpu time    0.0050: real time    0.0025
    FORNL :  cpu time    1.2294: real time    1.0715
    STRESS:  cpu time    2.2981: real time    2.2996
    FORCOR:  cpu time    0.0138: real time    0.0138
    FORHAR:  cpu time    0.0039: real time    0.0039
    MIXING:  cpu time    0.0011: real time    0.0011
    OFIELD:  cpu time    0.0000: real time    0.0000

  FORCE on cell =-STRESS in cart. coord.  units (eV):
  Direction    XX          YY          ZZ          XY          YZ          ZX
  --------------------------------------------------------------------------------------
  Alpha Z     3.29372     3.29372     3.29372
  Ewald     -75.65245   -75.65245   -75.65245     0.00000     0.00000     0.00000
  Hartree     5.05636     5.05636     5.05636     0.00000     0.00000     0.00000
  E(xc)     -25.24641   -25.24641   -25.24641     0.00000     0.00000     0.00000
  Local     -29.51785   -29.51785   -29.51785     0.00001     0.00001     0.00001
  n-local    78.40265    79.87558    74.11959     2.19088    -1.29735     0.51653
  augment   -11.65087   -11.65087   -11.65087    -0.00001    -0.00001    -0.00001
  Kinetic    58.45664    55.78316    54.51108     3.58490    -0.66590     1.04529
  Fock        0.00000     0.00000     0.00000     0.00000     0.00000     0.00000
  -------------------------------------------------------------------------------------
  Total      -0.00126    -0.00126    -0.00126     0.00000    -0.00000     0.00000
  in kB      -0.04952    -0.04952    -0.04952     0.00000    -0.00000     0.00000
  external pressure =       -0.05 kB  Pullay stress =        0.00 kB


 VOLUME and BASIS-vectors are now :
 -----------------------------------------------------------------------------
  energy-cutoff  :      400.00
  volume of cell :       40.88
      direct lattice vectors                 reciprocal lattice vectors
     0.000000000  2.734215396  2.734215396    -0.182867817  0.182867817  0.182867817
     2.734215396  0.000000000  2.734215396     0.182867817 -0.182867817  0.182867817
     2.734215396  2.734215396 -0.000000000     0.182867817  0.182867817 -0.182867817

  length of vectors
     3.866764496  3.866764496  3.866764496     0.316736350  0.316736350  0.316736350


 FORCES acting on ions
    electron-ion (+dipol)            ewald-force                    non-local-force                 convergence-correction
 -----------------------------------------------------------------------------------------------
   0.849E-08 0.849E-08 0.481E-08   -.194E-14 -.572E-14 -.619E-14   -.555E-16 -.763E-16 -.729E-16   -.157E-10 -.157E-10 -.157E-10
   -.849E-08 -.849E-08 -.481E-08   0.191E-14 0.548E-14 0.603E-14   0.694E-16 0.694E-16 0.902E-16   0.157E-10 0.157E-10 0.157E-10
 -----------------------------------------------------------------------------------------------
   0.937E-13 0.430E-13 -.726E-14   -.264E-16 -.249E-15 -.159E-15   0.139E-16 -.694E-17 0.173E-16   -.417E-14 -.326E-14 0.198E-14
 
 
 POSITION                                       TOTAL-FORCE (eV/Angst)
 -----------------------------------------------------------------------------------
      0.00000      0.00000      0.00000        -0.000000     -0.000000     -0.000000
      1.36711      1.36711      1.36711         0.000000      0.000000      0.000000
 -----------------------------------------------------------------------------------
    total drift:                                0.000000      0.000000     -0.000000


--------------------------------------------------------------------------------------------------------



  FREE ENERGIE OF THE ION-ELECTRON SYSTEM (eV)
  ---------------------------------------------------
  free  energy   TOTEN  =       -10.85056595 eV

  energy  without entropy=      -10.85056595  energy(sigma->0) =      -10.85056595
 
 d Force = 0.0000000E+00[ 0.000E+00, 0.000E+00]  d Energy = 0.2748908E-04-0.275E-04
 d Force = 0.0000000E+00[ 0.000E+00, 0.000E+00]  d Ewald  = 0.1103269E+00-0.110E+00


--------------------------------------------------------------------------------------------------------


    POTLOK:  cpu time    0.0155: real time    0.0155


--------------------------------------------------------------------------------------------------------




--------------------------------------------------------------------------------------------------------


  
 reached required accuracy - stopping structural energy minimisation
     LOOP+:  cpu time   23.8252: real time   20.4535
    4ORBIT:  cpu time    0.0000: real time    0.0000
 BZINTS: Fermi energy:  5.635919;  8.000000 electrons
         Band energy:   4.927987;  BLOECHL correction:  0.000000

 total amount of memory used by VASP on root node    32384. kBytes
========================================================================

   base      :      30000. kBytes
   nonlr-proj:        432. kBytes
   fftplans  :        584. kBytes
   grid      :        839. kBytes
   one-center:          3. kBytes
   wavefun   :        526. kBytes
 
  
  
 General timing and accounting informations for this job:
 ========================================================
  
                  Total CPU time used (sec):      139.239
                            User time (sec):      136.672
                          System time (sec):        2.567
                         Elapsed time (sec):      127.490
  
                   Maximum memory used (kb):       62204.
                   Average memory used (kb):           0.
  
                          Minor page faults:        62278
                          Major page faults:           14
                 Voluntary context switches:         1589
