<?xml version="1.0" encoding="ISO-8859-1"?>
<modeling>
 <generator>
  <i name="program" type="string">vasp </i>
  <i name="version" type="string">5.4.1  </i>
  <i name="subversion" type="string">05Feb16 (build Dec 14 2021 15:22:51) complex                          parallel </i>
  <i name="platform" type="string">IFC91_ompi </i>
  <i name="date" type="string">2023 01 09 </i>
  <i name="time" type="string">10:46:11 </i>
 </generator>
 <incar>
  <i type="string" name="PREC">accurate</i>
  <i type="string" name="ALGO"> Very_Fast</i>
  <i type="int" name="NELM">   500</i>
  <i type="int" name="NELMDL">    -9</i>
  <i type="int" name="NELMIN">     6</i>
  <i type="int" name="IBRION">     2</i>
  <i name="EDIFF">      0.00000100</i>
  <i name="EDIFFG">     -0.01000000</i>
  <i type="int" name="NSW">   500</i>
  <i type="int" name="ISIF">     3</i>
  <i type="int" name="ISYM">     2</i>
  <i name="ENCUT">    400.00000000</i>
  <i name="POTIM">      0.15000000</i>
  <i type="string" name="LREAL"> Auto</i>
  <i type="logical" name="LPLANE"> T  </i>
  <i type="int" name="ISMEAR">    -5</i>
  <i type="logical" name="LWAVE"> F  </i>
  <i type="logical" name="LCHARG"> F  </i>
  <v type="int" name="KPOINT_BSE">    -1     0     0     0</v>
  <i type="int" name="NELM">   500</i>
  <i type="string" name="GGA"> PE</i>
 </incar>
 <kpoints>
  <generation param="Gamma">
   <v type="int" name="divisions">      13       13       13 </v>
   <v name="usershift">      0.00000000       0.00000000       0.00000000 </v>
   <v name="genvec1">      0.07692308       0.00000000       0.00000000 </v>
   <v name="genvec2">      0.00000000       0.07692308       0.00000000 </v>
   <v name="genvec3">      0.00000000       0.00000000       0.07692308 </v>
   <v name="shift">      0.00000000       0.00000000       0.00000000 </v>
  </generation>
  <varray name="kpointlist" >
   <v>       0.00000000       0.00000000       0.00000000 </v>
   <v>       0.07692308       0.00000000       0.00000000 </v>
   <v>       0.15384615       0.00000000       0.00000000 </v>
   <v>       0.23076923       0.00000000       0.00000000 </v>
   <v>       0.30769231       0.00000000       0.00000000 </v>
   <v>       0.38461538       0.00000000       0.00000000 </v>
   <v>       0.46153846       0.00000000       0.00000000 </v>
   <v>       0.07692308       0.07692308       0.00000000 </v>
   <v>       0.15384615       0.07692308       0.00000000 </v>
   <v>       0.23076923       0.07692308       0.00000000 </v>
   <v>       0.30769231       0.07692308       0.00000000 </v>
   <v>       0.38461538       0.07692308       0.00000000 </v>
   <v>       0.46153846       0.07692308       0.00000000 </v>
   <v>      -0.46153846       0.07692308       0.00000000 </v>
   <v>      -0.38461538       0.07692308       0.00000000 </v>
   <v>      -0.30769231       0.07692308       0.00000000 </v>
   <v>      -0.23076923       0.07692308       0.00000000 </v>
   <v>      -0.15384615       0.07692308       0.00000000 </v>
   <v>      -0.07692308       0.07692308       0.00000000 </v>
   <v>       0.15384615       0.15384615       0.00000000 </v>
   <v>       0.23076923       0.15384615       0.00000000 </v>
   <v>       0.30769231       0.15384615       0.00000000 </v>
   <v>       0.38461538       0.15384615       0.00000000 </v>
   <v>       0.46153846       0.15384615       0.00000000 </v>
   <v>      -0.46153846       0.15384615       0.00000000 </v>
   <v>      -0.38461538       0.15384615       0.00000000 </v>
   <v>      -0.30769231       0.15384615       0.00000000 </v>
   <v>      -0.23076923       0.15384615       0.00000000 </v>
   <v>      -0.15384615       0.15384615       0.00000000 </v>
   <v>       0.23076923       0.23076923       0.00000000 </v>
   <v>       0.30769231       0.23076923       0.00000000 </v>
   <v>       0.38461538       0.23076923       0.00000000 </v>
   <v>       0.46153846       0.23076923       0.00000000 </v>
   <v>      -0.46153846       0.23076923       0.00000000 </v>
   <v>      -0.38461538       0.23076923       0.00000000 </v>
   <v>      -0.30769231       0.23076923       0.00000000 </v>
   <v>      -0.23076923       0.23076923       0.00000000 </v>
   <v>       0.30769231       0.30769231       0.00000000 </v>
   <v>       0.38461538       0.30769231       0.00000000 </v>
   <v>       0.46153846       0.30769231       0.00000000 </v>
   <v>      -0.46153846       0.30769231       0.00000000 </v>
   <v>      -0.38461538       0.30769231       0.00000000 </v>
   <v>      -0.30769231       0.30769231       0.00000000 </v>
   <v>       0.38461538       0.38461538       0.00000000 </v>
   <v>       0.46153846       0.38461538       0.00000000 </v>
   <v>      -0.46153846       0.38461538       0.00000000 </v>
   <v>      -0.38461538       0.38461538       0.00000000 </v>
   <v>       0.46153846       0.46153846       0.00000000 </v>
   <v>      -0.46153846       0.46153846       0.00000000 </v>
   <v>       0.23076923       0.15384615       0.07692308 </v>
   <v>       0.30769231       0.15384615       0.07692308 </v>
   <v>       0.38461538       0.15384615       0.07692308 </v>
   <v>       0.46153846       0.15384615       0.07692308 </v>
   <v>      -0.46153846       0.15384615       0.07692308 </v>
   <v>       0.30769231       0.23076923       0.07692308 </v>
   <v>       0.38461538       0.23076923       0.07692308 </v>
   <v>       0.46153846       0.23076923       0.07692308 </v>
   <v>      -0.46153846       0.23076923       0.07692308 </v>
   <v>      -0.38461538       0.23076923       0.07692308 </v>
   <v>      -0.30769231       0.23076923       0.07692308 </v>
   <v>      -0.23076923       0.23076923       0.07692308 </v>
   <v>      -0.15384615       0.23076923       0.07692308 </v>
   <v>       0.38461538       0.30769231       0.07692308 </v>
   <v>       0.46153846       0.30769231       0.07692308 </v>
   <v>      -0.46153846       0.30769231       0.07692308 </v>
   <v>      -0.38461538       0.30769231       0.07692308 </v>
   <v>      -0.30769231       0.30769231       0.07692308 </v>
   <v>      -0.23076923       0.30769231       0.07692308 </v>
   <v>       0.46153846       0.38461538       0.07692308 </v>
   <v>      -0.46153846       0.38461538       0.07692308 </v>
   <v>      -0.38461538       0.38461538       0.07692308 </v>
   <v>      -0.30769231       0.38461538       0.07692308 </v>
   <v>      -0.46153846       0.46153846       0.07692308 </v>
   <v>      -0.38461538       0.46153846       0.07692308 </v>
   <v>       0.46153846       0.30769231       0.15384615 </v>
   <v>      -0.46153846       0.30769231       0.15384615 </v>
   <v>      -0.38461538       0.30769231       0.15384615 </v>
   <v>      -0.46153846       0.38461538       0.15384615 </v>
   <v>      -0.38461538       0.38461538       0.15384615 </v>
   <v>      -0.30769231       0.38461538       0.15384615 </v>
   <v>      -0.23076923       0.38461538       0.15384615 </v>
   <v>      -0.38461538       0.46153846       0.15384615 </v>
   <v>      -0.30769231       0.46153846       0.15384615 </v>
   <v>      -0.30769231       0.46153846       0.23076923 </v>
  </varray>
  <varray name="weights" >
   <v>       0.00045517 </v>
   <v>       0.00364133 </v>
   <v>       0.00364133 </v>
   <v>       0.00364133 </v>
   <v>       0.00364133 </v>
   <v>       0.00364133 </v>
   <v>       0.00364133 </v>
   <v>       0.00273100 </v>
   <v>       0.01092399 </v>
   <v>       0.01092399 </v>
   <v>       0.01092399 </v>
   <v>       0.01092399 </v>
   <v>       0.01092399 </v>
   <v>       0.01092399 </v>
   <v>       0.01092399 </v>
   <v>       0.01092399 </v>
   <v>       0.01092399 </v>
   <v>       0.01092399 </v>
   <v>       0.00546199 </v>
   <v>       0.00273100 </v>
   <v>       0.01092399 </v>
   <v>       0.01092399 </v>
   <v>       0.01092399 </v>
   <v>       0.01092399 </v>
   <v>       0.01092399 </v>
   <v>       0.01092399 </v>
   <v>       0.01092399 </v>
   <v>       0.01092399 </v>
   <v>       0.00546199 </v>
   <v>       0.00273100 </v>
   <v>       0.01092399 </v>
   <v>       0.01092399 </v>
   <v>       0.01092399 </v>
   <v>       0.01092399 </v>
   <v>       0.01092399 </v>
   <v>       0.01092399 </v>
   <v>       0.00546199 </v>
   <v>       0.00273100 </v>
   <v>       0.01092399 </v>
   <v>       0.01092399 </v>
   <v>       0.01092399 </v>
   <v>       0.01092399 </v>
   <v>       0.00546199 </v>
   <v>       0.00273100 </v>
   <v>       0.01092399 </v>
   <v>       0.01092399 </v>
   <v>       0.00546199 </v>
   <v>       0.00273100 </v>
   <v>       0.00546199 </v>
   <v>       0.01092399 </v>
   <v>       0.02184797 </v>
   <v>       0.02184797 </v>
   <v>       0.02184797 </v>
   <v>       0.02184797 </v>
   <v>       0.01092399 </v>
   <v>       0.02184797 </v>
   <v>       0.02184797 </v>
   <v>       0.02184797 </v>
   <v>       0.02184797 </v>
   <v>       0.02184797 </v>
   <v>       0.02184797 </v>
   <v>       0.01092399 </v>
   <v>       0.01092399 </v>
   <v>       0.02184797 </v>
   <v>       0.02184797 </v>
   <v>       0.02184797 </v>
   <v>       0.02184797 </v>
   <v>       0.01092399 </v>
   <v>       0.01092399 </v>
   <v>       0.02184797 </v>
   <v>       0.02184797 </v>
   <v>       0.01092399 </v>
   <v>       0.01092399 </v>
   <v>       0.01092399 </v>
   <v>       0.01092399 </v>
   <v>       0.02184797 </v>
   <v>       0.02184797 </v>
   <v>       0.01092399 </v>
   <v>       0.02184797 </v>
   <v>       0.02184797 </v>
   <v>       0.01092399 </v>
   <v>       0.01092399 </v>
   <v>       0.01092399 </v>
   <v>       0.01092399 </v>
  </varray>
  <varray name="tetrahedronlist"  type="int" >
   <v type="int" >       24        1        2        2        8 </v>
   <v type="int" >       48        2        8        9       19 </v>
   <v type="int" >       48        2        3        9       19 </v>
   <v type="int" >       24        2        2        8       19 </v>
   <v type="int" >       48        3        9       10       18 </v>
   <v type="int" >       48        3        4       10       18 </v>
   <v type="int" >       48        3        9       18       19 </v>
   <v type="int" >       48        4       10       11       17 </v>
   <v type="int" >       48        4        5       11       17 </v>
   <v type="int" >       48        4       10       17       18 </v>
   <v type="int" >       48        5       11       12       16 </v>
   <v type="int" >       48        5        6       12       16 </v>
   <v type="int" >       48        5       11       16       17 </v>
   <v type="int" >       48        6       12       13       15 </v>
   <v type="int" >       48        6        7       13       15 </v>
   <v type="int" >       48        6       12       15       16 </v>
   <v type="int" >       48        7       13       14       14 </v>
   <v type="int" >       24        7        7       14       14 </v>
   <v type="int" >       48        7       13       14       15 </v>
   <v type="int" >       24        8        9        9       20 </v>
   <v type="int" >       24        8        9        9       19 </v>
   <v type="int" >       48        9       20       21       50 </v>
   <v type="int" >       48        9       10       21       50 </v>
   <v type="int" >       48        9       10       18       50 </v>
   <v type="int" >       24        9        9       20       50 </v>
   <v type="int" >       24        9        9       19       50 </v>
   <v type="int" >       48        9       18       19       50 </v>
   <v type="int" >       48       10       21       22       51 </v>
   <v type="int" >       48       10       11       22       51 </v>
   <v type="int" >       48       10       11       17       51 </v>
   <v type="int" >       48       10       21       50       51 </v>
   <v type="int" >       48       10       18       50       51 </v>
   <v type="int" >       48       10       17       18       51 </v>
   <v type="int" >       48       11       22       23       52 </v>
   <v type="int" >       48       11       12       23       52 </v>
   <v type="int" >       48       11       12       16       52 </v>
   <v type="int" >       48       11       22       51       52 </v>
   <v type="int" >       48       11       17       51       52 </v>
   <v type="int" >       48       11       16       17       52 </v>
   <v type="int" >       48       12       23       24       53 </v>
   <v type="int" >       48       12       13       24       53 </v>
   <v type="int" >       48       12       13       15       53 </v>
   <v type="int" >       48       12       23       52       53 </v>
   <v type="int" >       48       12       16       52       53 </v>
   <v type="int" >       48       12       15       16       53 </v>
   <v type="int" >       48       13       24       25       54 </v>
   <v type="int" >       48       13       14       25       54 </v>
   <v type="int" >       48       13       14       14       54 </v>
   <v type="int" >       48       13       24       53       54 </v>
   <v type="int" >       48       13       15       53       54 </v>
   <v type="int" >       48       13       14       15       54 </v>
   <v type="int" >       48       14       25       26       54 </v>
   <v type="int" >       48       14       15       26       54 </v>
   <v type="int" >       48       14       25       54       54 </v>
   <v type="int" >       24       14       14       54       54 </v>
   <v type="int" >       48       15       26       27       53 </v>
   <v type="int" >       48       15       16       27       53 </v>
   <v type="int" >       48       15       26       53       54 </v>
   <v type="int" >       48       16       27       28       52 </v>
   <v type="int" >       48       16       17       28       52 </v>
   <v type="int" >       48       16       27       52       53 </v>
   <v type="int" >       48       17       28       29       51 </v>
   <v type="int" >       48       17       18       29       51 </v>
   <v type="int" >       48       17       28       51       52 </v>
   <v type="int" >       24       18       18       29       50 </v>
   <v type="int" >       24       18       18       19       50 </v>
   <v type="int" >       48       18       29       50       51 </v>
   <v type="int" >       24       20       21       21       30 </v>
   <v type="int" >       24       20       21       21       50 </v>
   <v type="int" >       48       21       30       31       55 </v>
   <v type="int" >       48       21       22       31       55 </v>
   <v type="int" >       48       21       22       51       55 </v>
   <v type="int" >       24       21       21       30       55 </v>
   <v type="int" >       24       21       21       50       55 </v>
   <v type="int" >       48       21       50       51       55 </v>
   <v type="int" >       48       22       31       32       56 </v>
   <v type="int" >       48       22       23       32       56 </v>
   <v type="int" >       48       22       23       52       56 </v>
   <v type="int" >       48       22       31       55       56 </v>
   <v type="int" >       48       22       51       55       56 </v>
   <v type="int" >       48       22       51       52       56 </v>
   <v type="int" >       48       23       32       33       57 </v>
   <v type="int" >       48       23       24       33       57 </v>
   <v type="int" >       48       23       24       53       57 </v>
   <v type="int" >       48       23       32       56       57 </v>
   <v type="int" >       48       23       52       56       57 </v>
   <v type="int" >       48       23       52       53       57 </v>
   <v type="int" >       48       24       33       34       58 </v>
   <v type="int" >       48       24       25       34       58 </v>
   <v type="int" >       48       24       25       54       58 </v>
   <v type="int" >       48       24       33       57       58 </v>
   <v type="int" >       48       24       53       57       58 </v>
   <v type="int" >       48       24       53       54       58 </v>
   <v type="int" >       48       25       34       35       59 </v>
   <v type="int" >       48       25       26       35       59 </v>
   <v type="int" >       48       25       26       54       59 </v>
   <v type="int" >       48       25       34       58       59 </v>
   <v type="int" >       48       25       54       58       59 </v>
   <v type="int" >       48       25       54       54       59 </v>
   <v type="int" >       48       26       35       36       60 </v>
   <v type="int" >       48       26       27       36       60 </v>
   <v type="int" >       48       26       27       53       60 </v>
   <v type="int" >       48       26       35       59       60 </v>
   <v type="int" >       48       26       54       59       60 </v>
   <v type="int" >       48       26       53       54       60 </v>
   <v type="int" >       48       27       36       37       61 </v>
   <v type="int" >       48       27       28       37       61 </v>
   <v type="int" >       48       27       28       52       61 </v>
   <v type="int" >       48       27       36       60       61 </v>
   <v type="int" >       48       27       53       60       61 </v>
   <v type="int" >       48       27       52       53       61 </v>
   <v type="int" >       24       28       28       37       62 </v>
   <v type="int" >       24       28       28       29       62 </v>
   <v type="int" >       48       28       29       51       62 </v>
   <v type="int" >       48       28       37       61       62 </v>
   <v type="int" >       48       28       52       61       62 </v>
   <v type="int" >       48       28       51       52       62 </v>
   <v type="int" >       24       29       51       51       62 </v>
   <v type="int" >       24       29       50       51       51 </v>
   <v type="int" >       24       30       31       31       38 </v>
   <v type="int" >       24       30       31       31       55 </v>
   <v type="int" >       48       31       38       39       63 </v>
   <v type="int" >       48       31       32       39       63 </v>
   <v type="int" >       48       31       32       56       63 </v>
   <v type="int" >       24       31       31       38       63 </v>
   <v type="int" >       24       31       31       55       63 </v>
   <v type="int" >       48       31       55       56       63 </v>
   <v type="int" >       48       32       39       40       64 </v>
   <v type="int" >       48       32       33       40       64 </v>
   <v type="int" >       48       32       33       57       64 </v>
   <v type="int" >       48       32       39       63       64 </v>
   <v type="int" >       48       32       56       63       64 </v>
   <v type="int" >       48       32       56       57       64 </v>
   <v type="int" >       48       33       40       41       65 </v>
   <v type="int" >       48       33       34       41       65 </v>
   <v type="int" >       48       33       34       58       65 </v>
   <v type="int" >       48       33       40       64       65 </v>
   <v type="int" >       48       33       57       64       65 </v>
   <v type="int" >       48       33       57       58       65 </v>
   <v type="int" >       48       34       41       42       66 </v>
   <v type="int" >       48       34       35       42       66 </v>
   <v type="int" >       48       34       35       59       66 </v>
   <v type="int" >       48       34       41       65       66 </v>
   <v type="int" >       48       34       58       65       66 </v>
   <v type="int" >       48       34       58       59       66 </v>
   <v type="int" >       48       35       42       43       67 </v>
   <v type="int" >       48       35       36       43       67 </v>
   <v type="int" >       48       35       36       60       67 </v>
   <v type="int" >       48       35       42       66       67 </v>
   <v type="int" >       48       35       59       66       67 </v>
   <v type="int" >       48       35       59       60       67 </v>
   <v type="int" >       24       36       36       43       68 </v>
   <v type="int" >       24       36       36       37       68 </v>
   <v type="int" >       48       36       37       61       68 </v>
   <v type="int" >       48       36       43       67       68 </v>
   <v type="int" >       48       36       60       67       68 </v>
   <v type="int" >       48       36       60       61       68 </v>
   <v type="int" >       24       37       61       61       68 </v>
   <v type="int" >       24       37       61       61       62 </v>
   <v type="int" >       24       38       39       39       44 </v>
   <v type="int" >       24       38       39       39       63 </v>
   <v type="int" >       48       39       44       45       69 </v>
   <v type="int" >       48       39       40       45       69 </v>
   <v type="int" >       48       39       40       64       69 </v>
   <v type="int" >       24       39       39       44       69 </v>
   <v type="int" >       24       39       39       63       69 </v>
   <v type="int" >       48       39       63       64       69 </v>
   <v type="int" >       48       40       45       46       70 </v>
   <v type="int" >       48       40       41       46       70 </v>
   <v type="int" >       48       40       41       65       70 </v>
   <v type="int" >       48       40       45       69       70 </v>
   <v type="int" >       48       40       64       69       70 </v>
   <v type="int" >       48       40       64       65       70 </v>
   <v type="int" >       48       41       46       47       71 </v>
   <v type="int" >       48       41       42       47       71 </v>
   <v type="int" >       48       41       42       66       71 </v>
   <v type="int" >       48       41       46       70       71 </v>
   <v type="int" >       48       41       65       70       71 </v>
   <v type="int" >       48       41       65       66       71 </v>
   <v type="int" >       24       42       42       47       72 </v>
   <v type="int" >       24       42       42       43       72 </v>
   <v type="int" >       48       42       43       67       72 </v>
   <v type="int" >       48       42       47       71       72 </v>
   <v type="int" >       48       42       66       71       72 </v>
   <v type="int" >       48       42       66       67       72 </v>
   <v type="int" >       24       43       67       67       72 </v>
   <v type="int" >       24       43       67       67       68 </v>
   <v type="int" >       24       44       45       45       48 </v>
   <v type="int" >       24       44       45       45       69 </v>
   <v type="int" >       48       45       48       49       73 </v>
   <v type="int" >       48       45       46       49       73 </v>
   <v type="int" >       48       45       46       70       73 </v>
   <v type="int" >       24       45       45       48       73 </v>
   <v type="int" >       24       45       45       69       73 </v>
   <v type="int" >       48       45       69       70       73 </v>
   <v type="int" >       24       46       46       49       74 </v>
   <v type="int" >       24       46       46       47       74 </v>
   <v type="int" >       48       46       47       71       74 </v>
   <v type="int" >       48       46       49       73       74 </v>
   <v type="int" >       48       46       70       73       74 </v>
   <v type="int" >       48       46       70       71       74 </v>
   <v type="int" >       24       47       71       71       74 </v>
   <v type="int" >       24       47       71       71       72 </v>
   <v type="int" >       12       48       48       49       49 </v>
   <v type="int" >       24       48       49       49       73 </v>
   <v type="int" >       12       49       49       73       73 </v>
   <v type="int" >       24       49       73       73       74 </v>
   <v type="int" >       24       50       51       51       55 </v>
   <v type="int" >       48       51       55       56       62 </v>
   <v type="int" >       48       51       52       56       62 </v>
   <v type="int" >       24       51       51       55       62 </v>
   <v type="int" >       48       52       56       57       61 </v>
   <v type="int" >       48       52       53       57       61 </v>
   <v type="int" >       48       52       56       61       62 </v>
   <v type="int" >       48       53       57       58       60 </v>
   <v type="int" >       48       53       54       58       60 </v>
   <v type="int" >       48       53       57       60       61 </v>
   <v type="int" >       48       54       58       59       59 </v>
   <v type="int" >       24       54       54       59       59 </v>
   <v type="int" >       48       54       58       59       60 </v>
   <v type="int" >       24       55       56       56       63 </v>
   <v type="int" >       24       55       56       56       62 </v>
   <v type="int" >       48       56       63       64       75 </v>
   <v type="int" >       48       56       57       64       75 </v>
   <v type="int" >       48       56       57       61       75 </v>
   <v type="int" >       24       56       56       63       75 </v>
   <v type="int" >       24       56       56       62       75 </v>
   <v type="int" >       48       56       61       62       75 </v>
   <v type="int" >       48       57       64       65       76 </v>
   <v type="int" >       48       57       58       65       76 </v>
   <v type="int" >       48       57       58       60       76 </v>
   <v type="int" >       48       57       64       75       76 </v>
   <v type="int" >       48       57       61       75       76 </v>
   <v type="int" >       48       57       60       61       76 </v>
   <v type="int" >       48       58       65       66       77 </v>
   <v type="int" >       48       58       59       66       77 </v>
   <v type="int" >       48       58       59       59       77 </v>
   <v type="int" >       48       58       65       76       77 </v>
   <v type="int" >       48       58       60       76       77 </v>
   <v type="int" >       48       58       59       60       77 </v>
   <v type="int" >       48       59       66       67       77 </v>
   <v type="int" >       48       59       60       67       77 </v>
   <v type="int" >       48       59       66       77       77 </v>
   <v type="int" >       24       59       59       77       77 </v>
   <v type="int" >       48       60       67       68       76 </v>
   <v type="int" >       48       60       61       68       76 </v>
   <v type="int" >       48       60       67       76       77 </v>
   <v type="int" >       24       61       61       68       75 </v>
   <v type="int" >       24       61       61       62       75 </v>
   <v type="int" >       48       61       68       75       76 </v>
   <v type="int" >       24       63       64       64       69 </v>
   <v type="int" >       24       63       64       64       75 </v>
   <v type="int" >       48       64       69       70       78 </v>
   <v type="int" >       48       64       65       70       78 </v>
   <v type="int" >       48       64       65       76       78 </v>
   <v type="int" >       24       64       64       69       78 </v>
   <v type="int" >       24       64       64       75       78 </v>
   <v type="int" >       48       64       75       76       78 </v>
   <v type="int" >       48       65       70       71       79 </v>
   <v type="int" >       48       65       66       71       79 </v>
   <v type="int" >       48       65       66       77       79 </v>
   <v type="int" >       48       65       70       78       79 </v>
   <v type="int" >       48       65       76       78       79 </v>
   <v type="int" >       48       65       76       77       79 </v>
   <v type="int" >       48       66       71       72       80 </v>
   <v type="int" >       48       66       67       72       80 </v>
   <v type="int" >       48       66       67       77       80 </v>
   <v type="int" >       48       66       71       79       80 </v>
   <v type="int" >       48       66       77       79       80 </v>
   <v type="int" >       48       66       77       77       80 </v>
   <v type="int" >       24       67       67       72       81 </v>
   <v type="int" >       24       67       67       68       81 </v>
   <v type="int" >       48       67       68       76       81 </v>
   <v type="int" >       48       67       72       80       81 </v>
   <v type="int" >       48       67       77       80       81 </v>
   <v type="int" >       48       67       76       77       81 </v>
   <v type="int" >       24       68       76       76       81 </v>
   <v type="int" >       24       68       75       76       76 </v>
   <v type="int" >       24       69       70       70       73 </v>
   <v type="int" >       24       69       70       70       78 </v>
   <v type="int" >       48       70       73       74       82 </v>
   <v type="int" >       48       70       71       74       82 </v>
   <v type="int" >       48       70       71       79       82 </v>
   <v type="int" >       24       70       70       73       82 </v>
   <v type="int" >       24       70       70       78       82 </v>
   <v type="int" >       48       70       78       79       82 </v>
   <v type="int" >       24       71       71       74       83 </v>
   <v type="int" >       24       71       71       72       83 </v>
   <v type="int" >       48       71       72       80       83 </v>
   <v type="int" >       48       71       74       82       83 </v>
   <v type="int" >       48       71       79       82       83 </v>
   <v type="int" >       48       71       79       80       83 </v>
   <v type="int" >       24       72       80       80       83 </v>
   <v type="int" >       24       72       80       80       81 </v>
   <v type="int" >       12       73       73       74       74 </v>
   <v type="int" >       24       73       74       74       82 </v>
   <v type="int" >       12       74       74       82       82 </v>
   <v type="int" >       24       74       82       82       83 </v>
   <v type="int" >       24       75       76       76       78 </v>
   <v type="int" >       48       76       78       79       81 </v>
   <v type="int" >       48       76       77       79       81 </v>
   <v type="int" >       24       76       76       78       81 </v>
   <v type="int" >       48       77       79       80       80 </v>
   <v type="int" >       24       77       77       80       80 </v>
   <v type="int" >       48       77       79       80       81 </v>
   <v type="int" >       24       78       79       79       82 </v>
   <v type="int" >       24       78       79       79       81 </v>
   <v type="int" >       48       79       82       83       84 </v>
   <v type="int" >       48       79       80       83       84 </v>
   <v type="int" >       48       79       80       80       84 </v>
   <v type="int" >       24       79       79       82       84 </v>
   <v type="int" >       24       79       79       81       84 </v>
   <v type="int" >       48       79       80       81       84 </v>
   <v type="int" >       24       80       80       83       84 </v>
   <v type="int" >       24       80       80       81       84 </v>
   <v type="int" >       48       80       83       84       84 </v>
   <v type="int" >       24       80       80       84       84 </v>
   <v type="int" >       12       82       82       83       83 </v>
   <v type="int" >       24       82       83       83       84 </v>
   <v type="int" >       12       83       83       84       84 </v>
   <v type="int" >       24       83       84       84       84 </v>
   <v type="int" >        6       84       84       84       84 </v>
  </varray>
  <i name="volumeweight">      0.00007586 </i>
 </kpoints>
 <parameters>
  <separator name="general" >
   <i type="string" name="SYSTEM">unknown system</i>
   <i type="logical" name="LCOMPAT"> F  </i>
  </separator>
  <separator name="electronic" >
   <i type="string" name="PREC">accura</i>
   <i name="ENMAX">    400.00000000</i>
   <i name="ENAUG">    322.06900000</i>
   <i name="EDIFF">      0.00000100</i>
   <i type="int" name="IALGO">    48</i>
   <i type="int" name="IWAVPR">    11</i>
   <i type="int" name="NBANDS">     8</i>
   <i name="NELECT">      8.00000000</i>
   <i type="int" name="TURBO">     0</i>
   <i type="int" name="IRESTART">     0</i>
   <i type="int" name="NREBOOT">     0</i>
   <i type="int" name="NMIN">     0</i>
   <i name="EREF">      0.00000000</i>
   <separator name="electronic smearing" >
    <i type="int" name="ISMEAR">    -5</i>
    <i name="SIGMA">      0.20000000</i>
    <i name="KSPACING">      0.50000000</i>
    <i type="logical" name="KGAMMA"> T  </i>
   </separator>
   <separator name="electronic projectors" >
    <i type="logical" name="LREAL"> T  </i>
    <v name="ROPT">     -0.00025000</v>
    <i type="int" name="LMAXPAW">  -100</i>
    <i type="int" name="LMAXMIX">     2</i>
    <i type="logical" name="NLSPLINE"> F  </i>
   </separator>
   <separator name="electronic startup" >
    <i type="int" name="ISTART">     0</i>
    <i type="int" name="ICHARG">     2</i>
    <i type="int" name="INIWAV">     1</i>
   </separator>
   <separator name="electronic spin" >
    <i type="int" name="ISPIN">     1</i>
    <i type="logical" name="LNONCOLLINEAR"> F  </i>
    <v name="MAGMOM">      1.00000000      1.00000000</v>
    <i name="NUPDOWN">     -1.00000000</i>
    <i type="logical" name="LSORBIT"> F  </i>
    <v name="SAXIS">      0.00000000      0.00000000      1.00000000</v>
    <i type="logical" name="LSPIRAL"> F  </i>
    <v name="QSPIRAL">      0.00000000      0.00000000      0.00000000</v>
    <i type="logical" name="LZEROZ"> F  </i>
   </separator>
   <separator name="electronic exchange-correlation" >
    <i type="logical" name="LASPH"> F  </i>
    <i type="logical" name="LMETAGGA"> F  </i>
   </separator>
   <separator name="electronic convergence" >
    <i type="int" name="NELM">   500</i>
    <i type="int" name="NELMDL">    -9</i>
    <i type="int" name="NELMIN">     6</i>
    <i name="ENINI">    400.00000000</i>
    <separator name="electronic convergence detail" >
     <i type="logical" name="LDIAG"> T  </i>
     <i type="logical" name="LSUBROT"> F  </i>
     <i name="WEIMIN">      0.00100000</i>
     <i name="EBREAK">      0.00000003</i>
     <i name="DEPER">      0.30000000</i>
     <i type="int" name="NRMM">     4</i>
     <i name="TIME">      0.40000000</i>
    </separator>
   </separator>
   <separator name="electronic mixer" >
    <i name="AMIX">      0.40000000</i>
    <i name="BMIX">      1.00000000</i>
    <i name="AMIN">      0.10000000</i>
    <i name="AMIX_MAG">      1.60000000</i>
    <i name="BMIX_MAG">      1.00000000</i>
    <separator name="electronic mixer details" >
     <i type="int" name="IMIX">     4</i>
     <i type="logical" name="MIXFIRST"> F  </i>
     <i type="int" name="MAXMIX">   -45</i>
     <i name="WC">    100.00000000</i>
     <i type="int" name="INIMIX">     1</i>
     <i type="int" name="MIXPRE">     1</i>
     <i type="int" name="MREMOVE">     5</i>
    </separator>
   </separator>
   <separator name="electronic dipolcorrection" >
    <i type="logical" name="LDIPOL"> F  </i>
    <i type="logical" name="LMONO"> F  </i>
    <i type="int" name="IDIPOL">     0</i>
    <i name="EPSILON">      1.00000000</i>
    <v name="DIPOL">   -100.00000000   -100.00000000   -100.00000000</v>
    <i name="EFIELD">      0.00000000</i>
   </separator>
  </separator>
  <separator name="grids" >
   <i type="int" name="NGX">    28</i>
   <i type="int" name="NGY">    28</i>
   <i type="int" name="NGZ">    28</i>
   <i type="int" name="NGXF">    56</i>
   <i type="int" name="NGYF">    56</i>
   <i type="int" name="NGZF">    56</i>
   <i type="logical" name="ADDGRID"> F  </i>
  </separator>
  <separator name="ionic" >
   <i type="int" name="NSW">   500</i>
   <i type="int" name="IBRION">     2</i>
   <i type="int" name="ISIF">     3</i>
   <i name="PSTRESS">      0.00000000</i>
   <i name="EDIFFG">     -0.01000000</i>
   <i type="int" name="NFREE">     1</i>
   <i name="POTIM">      0.15000000</i>
   <i name="SMASS">     -3.00000000</i>
   <i name="SCALEE">      1.00000000</i>
  </separator>
  <separator name="ionic md" >
   <i name="TEBEG">      0.00010000</i>
   <i name="TEEND">      0.00010000</i>
   <i type="int" name="NBLOCK">     1</i>
   <i type="int" name="KBLOCK">   500</i>
   <i type="int" name="NPACO">   256</i>
   <i name="APACO">     16.00000000</i>
  </separator>
  <separator name="symmetry" >
   <i type="int" name="ISYM">     2</i>
   <i name="SYMPREC">      0.00001000</i>
  </separator>
  <separator name="dos" >
   <i type="logical" name="LORBIT"> F  </i>
   <v name="RWIGS">     -1.00000000</v>
   <i type="int" name="NEDOS">   301</i>
   <i name="EMIN">     10.00000000</i>
   <i name="EMAX">    -10.00000000</i>
   <i name="EFERMI">      0.00000000</i>
  </separator>
  <separator name="writing" >
   <i type="int" name="NWRITE">     2</i>
   <i type="logical" name="LWAVE"> F  </i>
   <i type="logical" name="LCHARG"> F  </i>
   <i type="logical" name="LPARD"> F  </i>
   <i type="logical" name="LVTOT"> F  </i>
   <i type="logical" name="LVHAR"> F  </i>
   <i type="logical" name="LELF"> F  </i>
   <i type="logical" name="LOPTICS"> F  </i>
   <v name="STM">      0.00000000      0.00000000      0.00000000      0.00000000      0.00000000      0.00000000      0.00000000</v>
  </separator>
  <separator name="performance" >
   <i type="int" name="NPAR">     4</i>
   <i type="int" name="NSIM">     4</i>
   <i type="int" name="NBLK">    -1</i>
   <i type="logical" name="LPLANE"> T  </i>
   <i type="logical" name="LSCALAPACK"> T  </i>
   <i type="logical" name="LSCAAWARE"> F  </i>
   <i type="logical" name="LSCALU"> F  </i>
   <i type="logical" name="LASYNC"> F  </i>
   <i type="logical" name="LORBITALREAL"> F  </i>
  </separator>
  <separator name="miscellaneous" >
   <i type="int" name="IDIOT">     3</i>
   <i type="logical" name="LMUSIC"> F  </i>
   <v name="POMASS">     28.08500000</v>
   <v name="DARWINR">      0.00000000</v>
   <v name="DARWINV">      1.00000000</v>
   <i type="logical" name="LCORR"> T  </i>
  </separator>
  <i type="logical" name="GGA_COMPAT"> T  </i>
  <i type="logical" name="LBERRY"> F  </i>
  <i type="int" name="ICORELEVEL">     0</i>
  <i type="logical" name="LDAU"> F  </i>
  <i type="int" name="I_CONSTRAINED_M">     0</i>
  <separator name="electronic exchange-correlation" >
   <i type="string" name="GGA">PE</i>
   <i type="int" name="VOSKOWN">     0</i>
   <i type="logical" name="LHFCALC"> F  </i>
   <i type="string" name="PRECFOCK"></i>
   <i type="logical" name="LSYMGRAD"> F  </i>
   <i type="logical" name="LHFONE"> F  </i>
   <i type="logical" name="LRHFCALC"> F  </i>
   <i type="logical" name="LTHOMAS"> F  </i>
   <i type="logical" name="LMODELHF"> F  </i>
   <i name="ENCUT4O">     -1.00000000</i>
   <i type="int" name="EXXOEP">     0</i>
   <i type="int" name="FOURORBIT">     0</i>
   <i name="AEXX">      0.00000000</i>
   <i name="HFALPHA">      0.00000000</i>
   <i name="MCALPHA">      0.00000000</i>
   <i name="ALDAX">      1.00000000</i>
   <i name="AGGAX">      1.00000000</i>
   <i name="ALDAC">      1.00000000</i>
   <i name="AGGAC">      1.00000000</i>
   <i type="int" name="NKREDX">     1</i>
   <i type="int" name="NKREDY">     1</i>
   <i type="int" name="NKREDZ">     1</i>
   <i type="logical" name="SHIFTRED"> F  </i>
   <i type="logical" name="ODDONLY"> F  </i>
   <i type="logical" name="EVENONLY"> F  </i>
   <i type="int" name="LMAXFOCK">     0</i>
   <i type="int" name="NMAXFOCKAE">     0</i>
   <i type="logical" name="LFOCKAEDFT"> F  </i>
   <i name="HFSCREEN">      0.00000000</i>
   <i name="HFSCREENC">      0.00000000</i>
   <i type="int" name="NBANDSGWLOW">     0</i>
  </separator>
  <separator name="vdW DFT" >
   <i type="logical" name="LUSE_VDW"> F  </i>
   <i name="Zab_VDW">     -0.84910000</i>
   <i name="PARAM1">      0.12340000</i>
   <i name="PARAM2">      1.00000000</i>
   <i name="PARAM3">      0.00000000</i>
  </separator>
  <separator name="model GW" >
   <i type="int" name="MODEL_GW">     0</i>
   <i name="MODEL_EPS0">     12.00772552</i>
   <i name="MODEL_ALPHA">      1.00000000</i>
  </separator>
  <separator name="linear response parameters" >
   <i type="logical" name="LEPSILON"> F  </i>
   <i type="logical" name="LRPA"> F  </i>
   <i type="logical" name="LNABLA"> F  </i>
   <i type="logical" name="LVEL"> F  </i>
   <i type="int" name="KINTER">     0</i>
   <i name="CSHIFT">      0.10000000</i>
   <i name="OMEGAMAX">     -1.00000000</i>
   <i name="DEG_THRESHOLD">      0.00200000</i>
  </separator>
  <separator name="orbital magnetization" >
   <i type="logical" name="NUCIND"> F  </i>
   <v name="MAGPOS">      0.00000000      0.00000000      0.00000000</v>
   <i type="logical" name="LNICSALL"> T  </i>
   <i type="logical" name="ORBITALMAG"> F  </i>
   <i type="logical" name="LMAGBLOCH"> F  </i>
   <i type="logical" name="LCHIMAG"> F  </i>
   <i type="logical" name="LGAUGE"> T  </i>
   <i type="int" name="MAGATOM">     0</i>
   <v name="MAGDIPOL">      0.00000000      0.00000000      0.00000000</v>
   <v name="AVECCONST">      0.00000000      0.00000000      0.00000000</v>
  </separator>
  <separator name="response functions" >
   <i type="logical" name="LADDER"> F  </i>
   <i type="logical" name="LFXC"> F  </i>
   <i type="logical" name="LHARTREE"> T  </i>
   <i type="int" name="IBSE">     0</i>
   <v type="int" name="KPOINT">    -1     0     0     0</v>
   <i type="logical" name="LTCTE"> F  </i>
   <i type="logical" name="LTETE"> F  </i>
   <i type="logical" name="LTRIPLET"> F  </i>
   <i type="logical" name="LFXCEPS"> F  </i>
   <i type="logical" name="LFXHEG"> F  </i>
   <i type="int" name="NATURALO">     0</i>
   <i type="logical" name="L2ORDER"> F  </i>
   <i type="logical" name="LUSEW"> F  </i>
   <i name="ENCUTGW">     -2.00000000</i>
   <i name="ENCUTGWSOFT">     -2.00000000</i>
   <i name="ENCUTLF">     -1.00000000</i>
   <i type="int" name="LMAXMP2">    -1</i>
   <i name="SCISSOR">      0.00000000</i>
   <i type="int" name="NOMEGA">     0</i>
   <i type="int" name="NOMEGAR">     0</i>
   <i type="int" name="NBANDSGW">    -1</i>
   <i type="int" name="NBANDSO">    -1</i>
   <i type="int" name="NBANDSV">    -1</i>
   <i type="int" name="NELM">   500</i>
   <i type="int" name="NELMHF">     1</i>
   <i type="int" name="DIM">     3</i>
   <i type="int" name="ANTIRES">     0</i>
   <i name="OMEGAMAX">    -30.00000000</i>
   <i name="OMEGAMIN">    -30.00000000</i>
   <i name="OMEGATL">   -200.00000000</i>
   <i type="int" name="OMEGAGRID">     0</i>
   <i name="CSHIFT">     -0.10000000</i>
   <i type="logical" name="SELFENERGY"> F  </i>
   <i type="logical" name="LSPECTRAL"> F  </i>
   <i type="logical" name="LSPECTRALGW"> F  </i>
   <i type="logical" name="LSINGLES"> F  </i>
   <i type="logical" name="LFERMIGW"> F  </i>
   <i type="logical" name="ODDONLYGW"> F  </i>
   <i type="logical" name="EVENONLYGW"> F  </i>
   <i type="int" name="NKREDLFX">     1</i>
   <i type="int" name="NKREDLFY">     1</i>
   <i type="int" name="NKREDLFZ">     1</i>
   <i type="int" name="MAXMEM">  1800</i>
   <i type="int" name="TELESCOPE">     0</i>
   <i type="int" name="TAUPAR">     1</i>
   <i type="int" name="OMEGAPAR">    -1</i>
   <i name="LAMBDA">      1.00000000</i>
  </separator>
  <separator name="External order field" >
   <i name="OFIELD_KAPPA">      0.00000000</i>
   <v name="OFIELD_K">      0.00000000      0.00000000      0.00000000</v>
   <i name="OFIELD_Q6_NEAR">      0.00000000</i>
   <i name="OFIELD_Q6_FAR">      0.00000000</i>
   <i name="OFIELD_A">      0.00000000</i>
  </separator>
  <separator name="solvation model" >
   <i type="logical" name="LSOL"> F  </i>
  </separator>
 </parameters>
 <atominfo>
  <atoms>       2 </atoms>
  <types>       1 </types>
  <array name="atoms" >
   <dimension dim="1">ion</dimension>
   <field type="string">element</field>
   <field type="int">atomtype</field>
   <set>
    <rc><c>Si</c><c>   1</c></rc>
    <rc><c>Si</c><c>   1</c></rc>
   </set>
  </array>
  <array name="atomtypes" >
   <dimension dim="1">type</dimension>
   <field type="int">atomspertype</field>
   <field type="string">element</field>
   <field>mass</field>
   <field>valence</field>
   <field type="string">pseudopotential</field>
   <set>
    <rc><c>   2</c><c>Si</c><c>     28.08500000</c><c>      4.00000000</c><c>  PAW_PBE Si 05Jan2001                  </c></rc>
   </set>
  </array>
 </atominfo>
 <structure name="initialpos" >
  <crystal>
   <varray name="basis" >
    <v>       0.00000000       2.71500000       2.71500000 </v>
    <v>       2.71500000       0.00000000       2.71500000 </v>
    <v>       2.71500000       2.71500000       0.00000000 </v>
   </varray>
   <i name="volume">     40.02575175 </i>
   <varray name="rec_basis" >
    <v>      -0.18416206       0.18416206       0.18416206 </v>
    <v>       0.18416206      -0.18416206       0.18416206 </v>
    <v>       0.18416206       0.18416206      -0.18416206 </v>
   </varray>
  </crystal>
  <varray name="positions" >
   <v>       0.00000000       0.00000000       0.00000000 </v>
   <v>       0.25000000       0.25000000       0.25000000 </v>
  </varray>
 </structure>
 <calculation>
  <scstep>
   <time name="diag">    0.25    0.25</time>
   <time name="diis">    2.53    2.19</time>
   <time name="orth">    0.03    0.03</time>
   <time name="total">    2.86    2.53</time>
   <energy>
    <i name="alphaZ">      3.36414726 </i>
    <i name="ewald">   -228.56352493 </i>
    <i name="hartreedc">    -11.00108242 </i>
    <i name="XCdc">    -18.60186697 </i>
    <i name="pawpsdc">    176.24759923 </i>
    <i name="pawaedc">   -141.06103558 </i>
    <i name="eentropy">      0.00000000 </i>
    <i name="bandstr">     39.07299028 </i>
    <i name="atom">    206.13149246 </i>
    <i name="e_fr_energy">     25.58871934 </i>
    <i name="e_wo_entrp">     25.58871934 </i>
    <i name="e_0_energy">     25.58871934 </i>
   </energy>
  </scstep>
  <scstep>
   <time name="diag">    0.28    0.28</time>
   <time name="diis">    1.78    1.45</time>
   <time name="orth">    0.02    0.02</time>
   <time name="total">    2.13    1.80</time>
   <energy>
    <i name="e_fr_energy">     -2.60781638 </i>
    <i name="e_wo_entrp">     -2.60781638 </i>
    <i name="e_0_energy">     -2.60781638 </i>
   </energy>
  </scstep>
  <scstep>
   <time name="diag">    0.26    0.26</time>
   <time name="diis">    1.97    1.65</time>
   <time name="orth">    0.02    0.02</time>
   <time name="total">    2.30    1.97</time>
   <energy>
    <i name="e_fr_energy">     -8.64101450 </i>
    <i name="e_wo_entrp">     -8.64101450 </i>
    <i name="e_0_energy">     -8.64101450 </i>
   </energy>
  </scstep>
  <scstep>
   <time name="diag">    0.25    0.25</time>
   <time name="diis">    1.68    1.35</time>
   <time name="orth">    0.03    0.03</time>
   <time name="total">    1.99    1.67</time>
   <energy>
    <i name="e_fr_energy">    -10.44093659 </i>
    <i name="e_wo_entrp">    -10.44093659 </i>
    <i name="e_0_energy">    -10.44093659 </i>
   </energy>
  </scstep>
  <scstep>
   <time name="diag">    0.26    0.26</time>
   <time name="diis">    1.71    1.39</time>
   <time name="orth">    0.02    0.02</time>
   <time name="total">    2.02    1.70</time>
   <energy>
    <i name="e_fr_energy">    -10.87773378 </i>
    <i name="e_wo_entrp">    -10.87773378 </i>
    <i name="e_0_energy">    -10.87773378 </i>
   </energy>
  </scstep>
  <scstep>
   <time name="diag">    0.24    0.24</time>
   <time name="diis">    1.96    1.63</time>
   <time name="orth">    0.02    0.02</time>
   <time name="total">    2.24    1.91</time>
   <energy>
    <i name="e_fr_energy">    -10.98528639 </i>
    <i name="e_wo_entrp">    -10.98528639 </i>
    <i name="e_0_energy">    -10.98528639 </i>
   </energy>
  </scstep>
  <scstep>
   <time name="diag">    0.27    0.27</time>
   <time name="diis">    4.07    3.55</time>
   <time name="orth">    0.02    0.02</time>
   <time name="total">    4.38    3.87</time>
   <energy>
    <i name="e_fr_energy">    -11.02108211 </i>
    <i name="e_wo_entrp">    -11.02108211 </i>
    <i name="e_0_energy">    -11.02108211 </i>
   </energy>
  </scstep>
  <scstep>
   <time name="diag">    0.27    0.27</time>
   <time name="diis">    3.44    2.98</time>
   <time name="orth">    0.03    0.03</time>
   <time name="total">    3.75    3.28</time>
   <energy>
    <i name="e_fr_energy">    -11.02535588 </i>
    <i name="e_wo_entrp">    -11.02535588 </i>
    <i name="e_0_energy">    -11.02535588 </i>
   </energy>
  </scstep>
  <scstep>
   <time name="diag">    0.31    0.31</time>
   <time name="diis">    3.69    3.26</time>
   <time name="orth">    0.02    0.02</time>
   <time name="total">    4.22    3.72</time>
   <energy>
    <i name="e_fr_energy">    -11.02562652 </i>
    <i name="e_wo_entrp">    -11.02562652 </i>
    <i name="e_0_energy">    -11.02562652 </i>
   </energy>
  </scstep>
  <scstep>
   <time name="diag">    0.41    0.29</time>
   <time name="diis">    3.11    2.68</time>
   <time name="orth">    0.02    0.02</time>
   <time name="total">    3.80    3.13</time>
   <energy>
    <i name="e_fr_energy">    -10.90094694 </i>
    <i name="e_wo_entrp">    -10.90094694 </i>
    <i name="e_0_energy">    -10.90094694 </i>
   </energy>
  </scstep>
  <scstep>
   <time name="diag">    0.34    0.26</time>
   <time name="diis">    2.62    2.21</time>
   <time name="orth">    0.02    0.02</time>
   <time name="total">    3.31    2.67</time>
   <energy>
    <i name="e_fr_energy">    -10.84427368 </i>
    <i name="e_wo_entrp">    -10.84427368 </i>
    <i name="e_0_energy">    -10.84427368 </i>
   </energy>
  </scstep>
  <scstep>
   <time name="diag">    0.36    0.27</time>
   <time name="diis">    4.09    3.69</time>
   <time name="orth">    0.02    0.02</time>
   <time name="total">    4.75    4.15</time>
   <energy>
    <i name="e_fr_energy">    -10.84521424 </i>
    <i name="e_wo_entrp">    -10.84521424 </i>
    <i name="e_0_energy">    -10.84521424 </i>
   </energy>
  </scstep>
  <scstep>
   <time name="diag">    0.33    0.24</time>
   <time name="diis">    3.24    2.81</time>
   <time name="orth">    0.02    0.02</time>
   <time name="total">    3.99    3.30</time>
   <energy>
    <i name="e_fr_energy">    -10.84539777 </i>
    <i name="e_wo_entrp">    -10.84539777 </i>
    <i name="e_0_energy">    -10.84539777 </i>
   </energy>
  </scstep>
  <scstep>
   <time name="diag">    0.42    0.29</time>
   <time name="diis">    4.16    3.63</time>
   <time name="orth">    0.02    0.02</time>
   <time name="total">    4.86    4.09</time>
   <energy>
    <i name="e_fr_energy">    -10.84542401 </i>
    <i name="e_wo_entrp">    -10.84542401 </i>
    <i name="e_0_energy">    -10.84542401 </i>
   </energy>
  </scstep>
  <scstep>
   <time name="diag">    0.35    0.26</time>
   <time name="diis">    3.67    3.01</time>
   <time name="orth">    0.02    0.02</time>
   <time name="total">    4.16    3.36</time>
   <energy>
    <i name="alphaZ">      3.36414726 </i>
    <i name="ewald">   -228.56352493 </i>
    <i name="hartreedc">    -14.91529075 </i>
    <i name="XCdc">    -17.96160557 </i>
    <i name="pawpsdc">    867.93484614 </i>
    <i name="pawaedc">   -832.97235242 </i>
    <i name="eentropy">      0.00000000 </i>
    <i name="bandstr">      6.13686407 </i>
    <i name="atom">    206.13149246 </i>
    <i name="e_fr_energy">    -10.84542374 </i>
    <i name="e_wo_entrp">    -10.84542374 </i>
    <i name="e_0_energy">    -10.84542374 </i>
   </energy>
  </scstep>
  <structure>
   <crystal>
    <varray name="basis" >
     <v>       0.00000000       2.71500000       2.71500000 </v>
     <v>       2.71500000       0.00000000       2.71500000 </v>
     <v>       2.71500000       2.71500000       0.00000000 </v>
    </varray>
    <i name="volume">     40.02575175 </i>
    <varray name="rec_basis" >
     <v>      -0.18416206       0.18416206       0.18416206 </v>
     <v>       0.18416206      -0.18416206       0.18416206 </v>
     <v>       0.18416206       0.18416206      -0.18416206 </v>
    </varray>
   </crystal>
   <varray name="positions" >
    <v>       0.00000000       0.00000000       0.00000000 </v>
    <v>       0.25000000       0.25000000       0.25000000 </v>
   </varray>
  </structure>
  <varray name="forces" >
   <v>       0.00000000       0.00000000       0.00000000 </v>
   <v>      -0.00000000      -0.00000000      -0.00000000 </v>
  </varray>
  <varray name="stress" >
   <v>      19.85596795       0.00000000       0.00000000 </v>
   <v>      -0.00000000      19.85596795      -0.00000000 </v>
   <v>       0.00000000       0.00000000      19.85596795 </v>
  </varray>
  <energy>
   <i name="e_fr_energy">    -10.84542374 </i>
   <i name="e_wo_entrp">    -10.84542374 </i>
   <i name="e_0_energy">      0.00000000 </i>
  </energy>
  <time name="totalsc">   55.27   47.56</time>
 </calculation>
 <calculation>
  <scstep>
   <time name="diag">    0.21    0.21</time>
   <time name="diis">    3.69    3.25</time>
   <time name="orth">    0.03    0.03</time>
   <time name="total">    4.05    3.58</time>
   <energy>
    <i name="alphaZ">      3.32817827 </i>
    <i name="ewald">   -227.74601466 </i>
    <i name="hartreedc">    -14.86393192 </i>
    <i name="XCdc">    -18.01415281 </i>
    <i name="pawpsdc">    867.61740317 </i>
    <i name="pawaedc">   -832.65500344 </i>
    <i name="eentropy">      0.00000000 </i>
    <i name="bandstr">      5.35204915 </i>
    <i name="atom">    206.13149246 </i>
    <i name="e_fr_energy">    -10.84997977 </i>
    <i name="e_wo_entrp">    -10.84997977 </i>
    <i name="e_0_energy">    -10.84997977 </i>
   </energy>
  </scstep>
  <scstep>
   <time name="diag">    0.41    0.29</time>
   <time name="diis">    3.00    2.61</time>
   <time name="orth">    0.02    0.02</time>
   <time name="total">    3.67    3.06</time>
   <energy>
    <i name="e_fr_energy">    -10.84957196 </i>
    <i name="e_wo_entrp">    -10.84957196 </i>
    <i name="e_0_energy">    -10.84957196 </i>
   </energy>
  </scstep>
  <scstep>
   <time name="diag">    0.35    0.27</time>
   <time name="diis">    3.33    2.87</time>
   <time name="orth">    0.02    0.02</time>
   <time name="total">    3.89    3.28</time>
   <energy>
    <i name="e_fr_energy">    -10.84934059 </i>
    <i name="e_wo_entrp">    -10.84934059 </i>
    <i name="e_0_energy">    -10.84934059 </i>
   </energy>
  </scstep>
  <scstep>
   <time name="diag">    0.43    0.31</time>
   <time name="diis">    3.31    2.83</time>
   <time name="orth">    0.02    0.02</time>
   <time name="total">    3.98    3.29</time>
   <energy>
    <i name="e_fr_energy">    -10.84933911 </i>
    <i name="e_wo_entrp">    -10.84933911 </i>
    <i name="e_0_energy">    -10.84933911 </i>
   </energy>
  </scstep>
  <scstep>
   <time name="diag">    0.41    0.28</time>
   <time name="diis">    4.45    4.07</time>
   <time name="orth">    0.03    0.03</time>
   <time name="total">    5.21    4.57</time>
   <energy>
    <i name="e_fr_energy">    -10.84933638 </i>
    <i name="e_wo_entrp">    -10.84933638 </i>
    <i name="e_0_energy">    -10.84933638 </i>
   </energy>
  </scstep>
  <scstep>
   <time name="diag">    0.35    0.29</time>
   <time name="diis">    2.62    2.29</time>
   <time name="orth">    0.02    0.02</time>
   <time name="total">    3.14    2.68</time>
   <energy>
    <i name="alphaZ">      3.32817827 </i>
    <i name="ewald">   -227.74601466 </i>
    <i name="hartreedc">    -15.04419945 </i>
    <i name="XCdc">    -18.01089778 </i>
    <i name="pawpsdc">    847.43587290 </i>
    <i name="pawaedc">   -812.46384297 </i>
    <i name="eentropy">      0.00000000 </i>
    <i name="bandstr">      5.52007437 </i>
    <i name="atom">    206.13149246 </i>
    <i name="e_fr_energy">    -10.84933685 </i>
    <i name="e_wo_entrp">    -10.84933685 </i>
    <i name="e_0_energy">    -10.84933685 </i>
   </energy>
  </scstep>
  <structure>
   <crystal>
    <varray name="basis" >
     <v>       0.00000000       2.72474568       2.72474568 </v>
     <v>       2.72474568       0.00000000       2.72474568 </v>
     <v>       2.72474568       2.72474568      -0.00000000 </v>
    </varray>
    <i name="volume">     40.45832651 </i>
    <varray name="rec_basis" >
     <v>      -0.18350336       0.18350336       0.18350336 </v>
     <v>       0.18350336      -0.18350336       0.18350336 </v>
     <v>       0.18350336       0.18350336      -0.18350336 </v>
    </varray>
   </crystal>
   <varray name="positions" >
    <v>       0.00000000       0.00000000       0.00000000 </v>
    <v>       0.25000000       0.25000000       0.25000000 </v>
   </varray>
  </structure>
  <varray name="forces" >
   <v>      -0.00000000      -0.00000000       0.00000000 </v>
   <v>       0.00000000       0.00000000      -0.00000000 </v>
  </varray>
  <varray name="stress" >
   <v>       9.41135442       0.00000000      -0.00000000 </v>
   <v>       0.00000000       9.41135442       0.00000000 </v>
   <v>       0.00000000       0.00000000       9.41135442 </v>
  </varray>
  <energy>
   <i name="e_fr_energy">    -10.84933685 </i>
   <i name="e_wo_entrp">    -10.84933685 </i>
   <i name="e_0_energy">      0.00000000 </i>
  </energy>
  <time name="totalsc">   28.13   24.44</time>
 </calculation>
 <calculation>
  <scstep>
   <time name="diag">    0.24    0.24</time>
   <time name="diis">    4.67    4.23</time>
   <time name="orth">    0.02    0.02</time>
   <time name="total">    5.08    4.61</time>
   <energy>
    <i name="alphaZ">      3.28891632 </i>
    <i name="ewald">   -226.84690956 </i>
    <i name="hartreedc">    -14.98519434 </i>
    <i name="XCdc">    -18.06879835 </i>
    <i name="pawpsdc">    847.06088420 </i>
    <i name="pawaedc">   -812.08895165 </i>
    <i name="eentropy">      0.00000000 </i>
    <i name="bandstr">      4.65723700 </i>
    <i name="atom">    206.13149246 </i>
    <i name="e_fr_energy">    -10.85132392 </i>
    <i name="e_wo_entrp">    -10.85132392 </i>
    <i name="e_0_energy">    -10.85132392 </i>
   </energy>
  </scstep>
  <scstep>
   <time name="diag">    0.46    0.32</time>
   <time name="diis">    4.49    3.89</time>
   <time name="orth">    0.03    0.03</time>
   <time name="total">    5.25    4.40</time>
   <energy>
    <i name="e_fr_energy">    -10.85082569 </i>
    <i name="e_wo_entrp">    -10.85082569 </i>
    <i name="e_0_energy">    -10.85082569 </i>
   </energy>
  </scstep>
  <scstep>
   <time name="diag">    0.35    0.25</time>
   <time name="diis">    3.34    2.95</time>
   <time name="orth">    0.02    0.02</time>
   <time name="total">    3.93    3.34</time>
   <energy>
    <i name="e_fr_energy">    -10.85054270 </i>
    <i name="e_wo_entrp">    -10.85054270 </i>
    <i name="e_0_energy">    -10.85054270 </i>
   </energy>
  </scstep>
  <scstep>
   <time name="diag">    0.40    0.26</time>
   <time name="diis">    3.34    2.95</time>
   <time name="orth">    0.02    0.02</time>
   <time name="total">    3.96    3.35</time>
   <energy>
    <i name="e_fr_energy">    -10.85054092 </i>
    <i name="e_wo_entrp">    -10.85054092 </i>
    <i name="e_0_energy">    -10.85054092 </i>
   </energy>
  </scstep>
  <scstep>
   <time name="diag">    0.42    0.28</time>
   <time name="diis">    3.70    3.29</time>
   <time name="orth">    0.01    0.01</time>
   <time name="total">    4.33    3.71</time>
   <energy>
    <i name="e_fr_energy">    -10.85053796 </i>
    <i name="e_wo_entrp">    -10.85053796 </i>
    <i name="e_0_energy">    -10.85053796 </i>
   </energy>
  </scstep>
  <scstep>
   <time name="diag">    0.40    0.27</time>
   <time name="diis">    3.65    3.29</time>
   <time name="orth">    0.02    0.02</time>
   <time name="total">    4.16    3.63</time>
   <energy>
    <i name="alphaZ">      3.28891632 </i>
    <i name="ewald">   -226.84690956 </i>
    <i name="hartreedc">    -15.18584559 </i>
    <i name="XCdc">    -18.06503088 </i>
    <i name="pawpsdc">    825.62389973 </i>
    <i name="pawaedc">   -790.64159726 </i>
    <i name="eentropy">      0.00000000 </i>
    <i name="bandstr">      4.84453632 </i>
    <i name="atom">    206.13149246 </i>
    <i name="e_fr_energy">    -10.85053846 </i>
    <i name="e_wo_entrp">    -10.85053846 </i>
    <i name="e_0_energy">    -10.85053846 </i>
   </energy>
  </scstep>
  <structure>
   <crystal>
    <varray name="basis" >
     <v>       0.00000000       2.73554518       2.73554518 </v>
     <v>       2.73554518       0.00000000       2.73554518 </v>
     <v>       2.73554518       2.73554518      -0.00000000 </v>
    </varray>
    <i name="volume">     40.94130407 </i>
    <varray name="rec_basis" >
     <v>      -0.18277892       0.18277892       0.18277892 </v>
     <v>       0.18277892      -0.18277892       0.18277892 </v>
     <v>       0.18277892       0.18277892      -0.18277892 </v>
    </varray>
   </crystal>
   <varray name="positions" >
    <v>       0.00000000       0.00000000       0.00000000 </v>
    <v>       0.25000000       0.25000000       0.25000000 </v>
   </varray>
  </structure>
  <varray name="forces" >
   <v>      -0.00000000      -0.00000000      -0.00000000 </v>
   <v>       0.00000000       0.00000000       0.00000000 </v>
  </varray>
  <varray name="stress" >
   <v>      -1.30599843       0.00000000      -0.00000000 </v>
   <v>       0.00000000      -1.30599843       0.00000000 </v>
   <v>      -0.00000000      -0.00000000      -1.30599843 </v>
  </varray>
  <energy>
   <i name="e_fr_energy">    -10.85053846 </i>
   <i name="e_wo_entrp">    -10.85053846 </i>
   <i name="e_0_energy">      0.00000000 </i>
  </energy>
  <time name="totalsc">   30.85   26.93</time>
 </calculation>
 <calculation>
  <scstep>
   <time name="diag">    0.27    0.27</time>
   <time name="diis">    3.71    3.30</time>
   <time name="orth">    0.04    0.04</time>
   <time name="total">    4.22    3.75</time>
   <energy>
    <i name="alphaZ">      3.29371734 </i>
    <i name="ewald">   -226.95723643 </i>
    <i name="hartreedc">    -15.19382663 </i>
    <i name="XCdc">    -18.05787894 </i>
    <i name="pawpsdc">    825.12930396 </i>
    <i name="pawaedc">   -790.14712028 </i>
    <i name="eentropy">      0.00000000 </i>
    <i name="bandstr">      4.95097263 </i>
    <i name="atom">    206.13149246 </i>
    <i name="e_fr_energy">    -10.85057589 </i>
    <i name="e_wo_entrp">    -10.85057589 </i>
    <i name="e_0_energy">    -10.85057589 </i>
   </energy>
  </scstep>
  <scstep>
   <time name="diag">    0.39    0.27</time>
   <time name="diis">    4.70    4.47</time>
   <time name="orth">    0.03    0.03</time>
   <time name="total">    5.38    4.92</time>
   <energy>
    <i name="e_fr_energy">    -10.85056885 </i>
    <i name="e_wo_entrp">    -10.85056885 </i>
    <i name="e_0_energy">    -10.85056885 </i>
   </energy>
  </scstep>
  <scstep>
   <time name="diag">    0.39    0.27</time>
   <time name="diis">    2.38    1.95</time>
   <time name="orth">    0.03    0.03</time>
   <time name="total">    3.02    2.37</time>
   <energy>
    <i name="e_fr_energy">    -10.85056563 </i>
    <i name="e_wo_entrp">    -10.85056563 </i>
    <i name="e_0_energy">    -10.85056563 </i>
   </energy>
  </scstep>
  <scstep>
   <time name="diag">    0.36    0.25</time>
   <time name="diis">    1.95    1.60</time>
   <time name="orth">    0.02    0.02</time>
   <time name="total">    2.56    2.00</time>
   <energy>
    <i name="e_fr_energy">    -10.85056567 </i>
    <i name="e_wo_entrp">    -10.85056567 </i>
    <i name="e_0_energy">    -10.85056567 </i>
   </energy>
  </scstep>
  <scstep>
   <time name="diag">    0.43    0.29</time>
   <time name="diis">    1.71    1.41</time>
   <time name="orth">    0.01    0.01</time>
   <time name="total">    2.43    1.86</time>
   <energy>
    <i name="e_fr_energy">    -10.85056601 </i>
    <i name="e_wo_entrp">    -10.85056601 </i>
    <i name="e_0_energy">    -10.85056601 </i>
   </energy>
  </scstep>
  <scstep>
   <time name="diag">    0.29    0.21</time>
   <time name="diis">    1.99    1.71</time>
   <time name="orth">    0.03    0.03</time>
   <time name="total">    2.44    2.02</time>
   <energy>
    <i name="alphaZ">      3.29371734 </i>
    <i name="ewald">   -226.95723643 </i>
    <i name="hartreedc">    -15.16913865 </i>
    <i name="XCdc">    -18.05832082 </i>
    <i name="pawpsdc">    827.94087571 </i>
    <i name="pawaedc">   -792.95994292 </i>
    <i name="eentropy">      0.00000000 </i>
    <i name="bandstr">      4.92798736 </i>
    <i name="atom">    206.13149246 </i>
    <i name="e_fr_energy">    -10.85056595 </i>
    <i name="e_wo_entrp">    -10.85056595 </i>
    <i name="e_0_energy">    -10.85056595 </i>
   </energy>
  </scstep>
  <structure>
   <crystal>
    <varray name="basis" >
     <v>       0.00000000       2.73421540       2.73421540 </v>
     <v>       2.73421540       0.00000000       2.73421540 </v>
     <v>       2.73421540       2.73421540      -0.00000000 </v>
    </varray>
    <i name="volume">     40.88162679 </i>
    <varray name="rec_basis" >
     <v>      -0.18286782       0.18286782       0.18286782 </v>
     <v>       0.18286782      -0.18286782       0.18286782 </v>
     <v>       0.18286782       0.18286782      -0.18286782 </v>
    </varray>
   </crystal>
   <varray name="positions" >
    <v>       0.00000000       0.00000000       0.00000000 </v>
    <v>       0.25000000       0.25000000       0.25000000 </v>
   </varray>
  </structure>
  <varray name="forces" >
   <v>      -0.00000000      -0.00000000      -0.00000000 </v>
   <v>       0.00000000       0.00000000       0.00000000 </v>
  </varray>
  <varray name="stress" >
   <v>      -0.04951509      -0.00000000       0.00000000 </v>
   <v>       0.00000000      -0.04951509      -0.00000000 </v>
   <v>       0.00000000      -0.00000000      -0.04951509 </v>
  </varray>
  <energy>
   <i name="e_fr_energy">    -10.85056595 </i>
   <i name="e_wo_entrp">    -10.85056595 </i>
   <i name="e_0_energy">      0.00000000 </i>
  </energy>
  <time name="totalsc">   23.83   20.45</time>
  <eigenvalues>
   <array>
    <dimension dim="1">band</dimension>
    <dimension dim="2">kpoint</dimension>
    <dimension dim="3">spin</dimension>
    <field>eigene</field>
    <field>occ</field>
    <set>
     <set comment="spin 1">
      <set comment="kpoint 1">
       <r>   -6.1986    1.0000 </r>
       <r>    5.6176    1.0000 </r>
       <r>    5.6176    1.0000 </r>
       <r>    5.6176    1.0000 </r>
       <r>    8.1749    0.0000 </r>
       <r>    8.1749    0.0000 </r>
       <r>    8.1762    0.0000 </r>
       <r>   13.3357    0.0000 </r>
      </set>
      <set comment="kpoint 2">
       <r>   -6.1224    1.0000 </r>
       <r>    4.8646    1.0000 </r>
       <r>    5.4963    1.0000 </r>
       <r>    5.4963    1.0000 </r>
       <r>    8.1952    0.0000 </r>
       <r>    8.3535    0.0000 </r>
       <r>    8.3535    0.0000 </r>
       <r>    9.3588    0.0000 </r>
      </set>
      <set comment="kpoint 3">
       <r>   -5.8958    1.0000 </r>
       <r>    3.4933    1.0000 </r>
       <r>    5.2261    1.0000 </r>
       <r>    5.2261    1.0000 </r>
       <r>    7.9547    0.0000 </r>
       <r>    8.7446    0.0000 </r>
       <r>    8.7446    0.0000 </r>
       <r>   10.6663    0.0000 </r>
      </set>
      <set comment="kpoint 4">
       <r>   -5.5264    1.0000 </r>
       <r>    2.0740    1.0000 </r>
       <r>    4.9382    1.0000 </r>
       <r>    4.9382    1.0000 </r>
       <r>    7.6501    0.0000 </r>
       <r>    9.0661    0.0000 </r>
       <r>    9.0661    0.0000 </r>
       <r>   12.0419    0.0000 </r>
      </set>
      <set comment="kpoint 5">
       <r>   -5.0332    1.0000 </r>
       <r>    0.7517    1.0000 </r>
       <r>    4.6989    1.0000 </r>
       <r>    4.6989    1.0000 </r>
       <r>    7.3837    0.0000 </r>
       <r>    9.1407    0.0000 </r>
       <r>    9.1407    0.0000 </r>
       <r>   13.2733    0.0000 </r>
      </set>
      <set comment="kpoint 6">
       <r>   -4.4680    1.0000 </r>
       <r>   -0.3804    1.0000 </r>
       <r>    4.5333    1.0000 </r>
       <r>    4.5333    1.0000 </r>
       <r>    7.1945    0.0000 </r>
       <r>    9.0587    0.0000 </r>
       <r>    9.0587    0.0000 </r>
       <r>   13.4459    0.0000 </r>
      </set>
      <set comment="kpoint 7">
       <r>   -3.9984    1.0000 </r>
       <r>   -1.1370    1.0000 </r>
       <r>    4.4495    1.0000 </r>
       <r>    4.4495    1.0000 </r>
       <r>    7.0974    0.0000 </r>
       <r>    8.9794    0.0000 </r>
       <r>    8.9794    0.0000 </r>
       <r>   13.3384    0.0000 </r>
      </set>
      <set comment="kpoint 8">
       <r>   -6.0968    1.0000 </r>
       <r>    4.9981    1.0000 </r>
       <r>    5.2516    1.0000 </r>
       <r>    5.2516    1.0000 </r>
       <r>    7.9422    0.0000 </r>
       <r>    8.6660    0.0000 </r>
       <r>    8.6660    0.0000 </r>
       <r>    9.3353    0.0000 </r>
      </set>
      <set comment="kpoint 9">
       <r>   -5.9200    1.0000 </r>
       <r>    3.8939    1.0000 </r>
       <r>    4.9261    1.0000 </r>
       <r>    5.1032    1.0000 </r>
       <r>    7.9507    0.0000 </r>
       <r>    8.7159    0.0000 </r>
       <r>    9.1446    0.0000 </r>
       <r>   10.2576    0.0000 </r>
      </set>
      <set comment="kpoint 10">
       <r>   -5.5973    1.0000 </r>
       <r>    2.5235    1.0000 </r>
       <r>    4.6290    1.0000 </r>
       <r>    4.8249    1.0000 </r>
       <r>    8.0413    0.0000 </r>
       <r>    8.7195    0.0000 </r>
       <r>    9.5409    0.0000 </r>
       <r>   10.9849    0.0000 </r>
      </set>
      <set comment="kpoint 11">
       <r>   -5.1423    1.0000 </r>
       <r>    1.1869    1.0000 </r>
       <r>    4.4097    1.0000 </r>
       <r>    4.5048    1.0000 </r>
       <r>    7.8827    0.0000 </r>
       <r>    8.8717    0.0000 </r>
       <r>    9.6529    0.0000 </r>
       <r>   11.4607    0.0000 </r>
      </set>
      <set comment="kpoint 12">
       <r>   -4.5913    1.0000 </r>
       <r>   -0.0069    1.0000 </r>
       <r>    4.2217    1.0000 </r>
       <r>    4.2870    1.0000 </r>
       <r>    7.6973    0.0000 </r>
       <r>    8.8879    0.0000 </r>
       <r>    9.5266    0.0000 </r>
       <r>   12.3051    0.0000 </r>
      </set>
      <set comment="kpoint 13">
       <r>   -4.0564    1.0000 </r>
       <r>   -0.9162    1.0000 </r>
       <r>    4.0082    1.0000 </r>
       <r>    4.2649    1.0000 </r>
       <r>    7.5786    0.0000 </r>
       <r>    8.8709    0.0000 </r>
       <r>    9.3414    0.0000 </r>
       <r>   13.2544    0.0000 </r>
      </set>
      <set comment="kpoint 14">
       <r>   -3.8609    1.0000 </r>
       <r>   -1.2057    1.0000 </r>
       <r>    3.8805    1.0000 </r>
       <r>    4.3396    1.0000 </r>
       <r>    7.5491    0.0000 </r>
       <r>    8.9273    0.0000 </r>
       <r>    9.2070    0.0000 </r>
       <r>   13.5765    0.0000 </r>
      </set>
      <set comment="kpoint 15">
       <r>   -4.2198    1.0000 </r>
       <r>   -0.6576    1.0000 </r>
       <r>    3.8494    1.0000 </r>
       <r>    4.5023    1.0000 </r>
       <r>    7.6131    0.0000 </r>
       <r>    9.0765    0.0000 </r>
       <r>    9.1519    0.0000 </r>
       <r>   13.4650    0.0000 </r>
      </set>
      <set comment="kpoint 16">
       <r>   -4.7825    1.0000 </r>
       <r>    0.3712    1.0000 </r>
       <r>    3.9229    1.0000 </r>
       <r>    4.7391    1.0000 </r>
       <r>    7.7664    0.0000 </r>
       <r>    9.1305    0.0000 </r>
       <r>    9.2645    0.0000 </r>
       <r>   12.8340    0.0000 </r>
      </set>
      <set comment="kpoint 17">
       <r>   -5.3080    1.0000 </r>
       <r>    1.6212    1.0000 </r>
       <r>    4.1066    1.0000 </r>
       <r>    5.0268    1.0000 </r>
       <r>    7.9958    0.0000 </r>
       <r>    9.0101    0.0000 </r>
       <r>    9.3253    0.0000 </r>
       <r>   11.8803    0.0000 </r>
      </set>
      <set comment="kpoint 18">
       <r>   -5.7210    1.0000 </r>
       <r>    2.9666    1.0000 </r>
       <r>    4.4079    1.0000 </r>
       <r>    5.3190    1.0000 </r>
       <r>    8.2665    0.0000 </r>
       <r>    8.6989    0.0000 </r>
       <r>    9.0350    0.0000 </r>
       <r>   12.1244    0.0000 </r>
      </set>
      <set comment="kpoint 19">
       <r>   -5.9959    1.0000 </r>
       <r>    4.1964    1.0000 </r>
       <r>    4.8828    1.0000 </r>
       <r>    5.5189    1.0000 </r>
       <r>    8.3845    0.0000 </r>
       <r>    8.4644    0.0000 </r>
       <r>    8.5159    0.0000 </r>
       <r>   10.1133    0.0000 </r>
      </set>
      <set comment="kpoint 20">
       <r>   -5.7930    1.0000 </r>
       <r>    3.7833    1.0000 </r>
       <r>    4.5680    1.0000 </r>
       <r>    4.5680    1.0000 </r>
       <r>    7.4259    0.0000 </r>
       <r>    9.7202    0.0000 </r>
       <r>    9.7672    0.0000 </r>
       <r>   13.3754    0.0000 </r>
      </set>
      <set comment="kpoint 21">
       <r>   -5.5183    1.0000 </r>
       <r>    2.7874    1.0000 </r>
       <r>    4.2521    1.0000 </r>
       <r>    4.2736    1.0000 </r>
       <r>    7.4207    0.0000 </r>
       <r>    9.5325    0.0000 </r>
       <r>   10.1910    0.0000 </r>
       <r>   12.6200    0.0000 </r>
      </set>
      <set comment="kpoint 22">
       <r>   -5.1058    1.0000 </r>
       <r>    1.5701    1.0000 </r>
       <r>    3.8901    1.0000 </r>
       <r>    4.0253    1.0000 </r>
       <r>    7.6471    0.0000 </r>
       <r>    9.5503    0.0000 </r>
       <r>   10.1144    0.0000 </r>
       <r>   10.4875    0.0000 </r>
      </set>
      <set comment="kpoint 23">
       <r>   -4.5806    1.0000 </r>
       <r>    0.3924    1.0000 </r>
       <r>    3.4950    1.0000 </r>
       <r>    3.9070    1.0000 </r>
       <r>    7.7092    0.0000 </r>
       <r>    9.6372    0.0000 </r>
       <r>   10.4006    0.0000 </r>
       <r>   10.5251    0.0000 </r>
      </set>
      <set comment="kpoint 24">
       <r>   -4.0170    1.0000 </r>
       <r>   -0.5983    1.0000 </r>
       <r>    3.1628    1.0000 </r>
       <r>    3.9025    1.0000 </r>
       <r>    7.6999    0.0000 </r>
       <r>    9.5211    0.0000 </r>
       <r>   11.6117    0.0000 </r>
       <r>   15.0971    0.0000 </r>
      </set>
      <set comment="kpoint 25">
       <r>   -3.6580    1.0000 </r>
       <r>   -1.1290    1.0000 </r>
       <r>    2.9266    1.0000 </r>
       <r>    4.0092    1.0000 </r>
       <r>    7.7571    0.0000 </r>
       <r>    9.4569    0.0000 </r>
       <r>    9.9502    0.0000 </r>
       <r>   12.9670    0.0000 </r>
      </set>
      <set comment="kpoint 26">
       <r>   -3.8618    1.0000 </r>
       <r>   -0.8328    1.0000 </r>
       <r>    2.8066    1.0000 </r>
       <r>    4.2170    1.0000 </r>
       <r>    7.9141    0.0000 </r>
       <r>    9.4862    0.0000 </r>
       <r>    9.7860    0.0000 </r>
       <r>   13.6305    0.0000 </r>
      </set>
      <set comment="kpoint 27">
       <r>   -4.3999    1.0000 </r>
       <r>    0.0525    1.0000 </r>
       <r>    2.8224    1.0000 </r>
       <r>    4.5063    1.0000 </r>
       <r>    8.1533    0.0000 </r>
       <r>    9.5911    0.0000 </r>
       <r>    9.6495    0.0000 </r>
       <r>   12.4600    0.0000 </r>
      </set>
      <set comment="kpoint 28">
       <r>   -4.9490    1.0000 </r>
       <r>    1.1595    1.0000 </r>
       <r>    3.0113    1.0000 </r>
       <r>    4.8414    1.0000 </r>
       <r>    8.4268    0.0000 </r>
       <r>    9.4128    0.0000 </r>
       <r>    9.6231    0.0000 </r>
       <r>   11.5200    0.0000 </r>
      </set>
      <set comment="kpoint 29">
       <r>   -5.4010    1.0000 </r>
       <r>    2.2257    1.0000 </r>
       <r>    3.4933    1.0000 </r>
       <r>    5.1529    1.0000 </r>
       <r>    8.6109    0.0000 </r>
       <r>    9.0111    0.0000 </r>
       <r>    9.2711    0.0000 </r>
       <r>   11.1867    0.0000 </r>
      </set>
      <set comment="kpoint 30">
       <r>   -5.2914    1.0000 </r>
       <r>    2.4400    1.0000 </r>
       <r>    3.9138    1.0000 </r>
       <r>    3.9138    1.0000 </r>
       <r>    6.8883    0.0000 </r>
       <r>    9.0364    0.0000 </r>
       <r>   10.9776    0.0000 </r>
       <r>   10.9776    0.0000 </r>
      </set>
      <set comment="kpoint 31">
       <r>   -4.9234    1.0000 </r>
       <r>    1.5910    1.0000 </r>
       <r>    3.5159    1.0000 </r>
       <r>    3.6653    1.0000 </r>
       <r>    6.9323    0.0000 </r>
       <r>    8.6684    0.0000 </r>
       <r>   11.2469    0.0000 </r>
       <r>   11.4601    0.0000 </r>
      </set>
      <set comment="kpoint 32">
       <r>   -4.4319    1.0000 </r>
       <r>    0.6031    1.0000 </r>
       <r>    2.9790    1.0000 </r>
       <r>    3.5290    1.0000 </r>
       <r>    7.1601    0.0000 </r>
       <r>    8.9238    0.0000 </r>
       <r>   11.1243    0.0000 </r>
       <r>   11.5177    0.0000 </r>
      </set>
      <set comment="kpoint 33">
       <r>   -3.8656    1.0000 </r>
       <r>   -0.3396    1.0000 </r>
       <r>    2.4826    1.0000 </r>
       <r>    3.5129    1.0000 </r>
       <r>    7.2394    0.0000 </r>
       <r>    9.8614    0.0000 </r>
       <r>   10.9501    0.0000 </r>
       <r>   11.3112    0.0000 </r>
      </set>
      <set comment="kpoint 34">
       <r>   -3.3921    1.0000 </r>
       <r>   -1.0056    1.0000 </r>
       <r>    2.1093    1.0000 </r>
       <r>    3.6165    1.0000 </r>
       <r>    7.3397    0.0000 </r>
       <r>   10.7346    0.0000 </r>
       <r>   11.0456    0.0000 </r>
       <r>   11.2560    0.0000 </r>
      </set>
      <set comment="kpoint 35">
       <r>   -3.4163    1.0000 </r>
       <r>   -0.9667    1.0000 </r>
       <r>    1.8953    1.0000 </r>
       <r>    3.8315    1.0000 </r>
       <r>    7.5515    0.0000 </r>
       <r>   10.6893    0.0000 </r>
       <r>   10.8005    0.0000 </r>
       <r>   12.7295    0.0000 </r>
      </set>
      <set comment="kpoint 36">
       <r>   -3.9057    1.0000 </r>
       <r>   -0.2799    1.0000 </r>
       <r>    1.8880    1.0000 </r>
       <r>    4.1390    1.0000 </r>
       <r>    7.8721    0.0000 </r>
       <r>   10.5297    0.0000 </r>
       <r>   10.6562    0.0000 </r>
       <r>   12.4452    0.0000 </r>
      </set>
      <set comment="kpoint 37">
       <r>   -4.4666    1.0000 </r>
       <r>    0.5401    1.0000 </r>
       <r>    2.2082    1.0000 </r>
       <r>    4.5011    1.0000 </r>
       <r>    8.2383    0.0000 </r>
       <r>   10.0465    0.0000 </r>
       <r>   10.3715    0.0000 </r>
       <r>   11.4735    0.0000 </r>
      </set>
      <set comment="kpoint 38">
       <r>   -4.5994    1.0000 </r>
       <r>    1.0774    1.0000 </r>
       <r>    3.3896    1.0000 </r>
       <r>    3.3896    1.0000 </r>
       <r>    6.4739    0.0000 </r>
       <r>    7.9546    0.0000 </r>
       <r>   12.3284    0.0000 </r>
       <r>   12.3284    0.0000 </r>
      </set>
      <set comment="kpoint 39">
       <r>   -4.1458    1.0000 </r>
       <r>    0.3362    1.0000 </r>
       <r>    2.9628    1.0000 </r>
       <r>    3.2252    1.0000 </r>
       <r>    6.5894    0.0000 </r>
       <r>    7.7352    0.0000 </r>
       <r>   12.6263    0.0000 </r>
       <r>   12.7289    0.0000 </r>
      </set>
      <set comment="kpoint 40">
       <r>   -3.5940    1.0000 </r>
       <r>   -0.4326    1.0000 </r>
       <r>    2.3209    1.0000 </r>
       <r>    3.1832    1.0000 </r>
       <r>    6.7840    0.0000 </r>
       <r>    8.2980    0.0000 </r>
       <r>   12.5300    0.0000 </r>
       <r>   12.6436    0.0000 </r>
      </set>
      <set comment="kpoint 41">
[...]
       <r>   -1.5233    1.0000 </r>
       <r>    2.5536    1.0000 </r>
       <r>    2.6295    1.0000 </r>
       <r>    6.8009    0.0000 </r>
       <r>    7.0394    0.0000 </r>
       <r>   13.8991    0.0000 </r>
       <r>   14.9815    0.0000 </r>
      </set>
      <set comment="kpoint 74">
       <r>   -2.1926    1.0000 </r>
       <r>   -1.9329    1.0000 </r>
       <r>    1.9937    1.0000 </r>
       <r>    2.6870    1.0000 </r>
       <r>    7.0239    0.0000 </r>
       <r>    7.9925    0.0000 </r>
       <r>   13.5282    0.0000 </r>
       <r>   13.7318    0.0000 </r>
      </set>
      <set comment="kpoint 75">
       <r>   -4.2613    1.0000 </r>
       <r>    0.3976    1.0000 </r>
       <r>    2.3517    1.0000 </r>
       <r>    3.6408    1.0000 </r>
       <r>    8.3075    0.0000 </r>
       <r>    9.3812    0.0000 </r>
       <r>    9.7475    0.0000 </r>
       <r>   12.1059    0.0000 </r>
      </set>
      <set comment="kpoint 76">
       <r>   -3.6988    1.0000 </r>
       <r>   -0.3775    1.0000 </r>
       <r>    1.9768    1.0000 </r>
       <r>    3.3218    1.0000 </r>
       <r>    8.6691    0.0000 </r>
       <r>    9.3711    0.0000 </r>
       <r>   10.1051    0.0000 </r>
       <r>   12.5057    0.0000 </r>
      </set>
      <set comment="kpoint 77">
       <r>   -3.2111    1.0000 </r>
       <r>   -1.0111    1.0000 </r>
       <r>    1.8311    1.0000 </r>
       <r>    3.1299    1.0000 </r>
       <r>    8.8287    0.0000 </r>
       <r>    9.0681    0.0000 </r>
       <r>   11.3823    0.0000 </r>
       <r>   12.5865    0.0000 </r>
      </set>
      <set comment="kpoint 78">
       <r>   -3.4497    1.0000 </r>
       <r>   -0.5417    1.0000 </r>
       <r>    2.0712    1.0000 </r>
       <r>    2.8249    1.0000 </r>
       <r>    8.0863    0.0000 </r>
       <r>    8.6845    0.0000 </r>
       <r>   10.7691    0.0000 </r>
       <r>   13.6785    0.0000 </r>
      </set>
      <set comment="kpoint 79">
       <r>   -2.8993    1.0000 </r>
       <r>   -1.1319    1.0000 </r>
       <r>    1.7302    1.0000 </r>
       <r>    2.6024    1.0000 </r>
       <r>    8.4224    0.0000 </r>
       <r>    9.6175    0.0000 </r>
       <r>   10.4775    0.0000 </r>
       <r>   13.0904    0.0000 </r>
      </set>
      <set comment="kpoint 80">
       <r>   -2.7130    1.0000 </r>
       <r>   -1.3207    1.0000 </r>
       <r>    1.5220    1.0000 </r>
       <r>    2.6562    1.0000 </r>
       <r>    8.6458    0.0000 </r>
       <r>   10.0695    0.0000 </r>
       <r>   11.1332    0.0000 </r>
       <r>   11.5907    0.0000 </r>
      </set>
      <set comment="kpoint 81">
       <r>   -3.1409    1.0000 </r>
       <r>   -0.8846    1.0000 </r>
       <r>    1.5685    1.0000 </r>
       <r>    2.9235    1.0000 </r>
       <r>    8.9669    0.0000 </r>
       <r>    9.6897    0.0000 </r>
       <r>   10.3038    0.0000 </r>
       <r>   13.4335    0.0000 </r>
      </set>
      <set comment="kpoint 82">
       <r>   -2.5203    1.0000 </r>
       <r>   -1.5283    1.0000 </r>
       <r>    2.0346    1.0000 </r>
       <r>    2.2773    1.0000 </r>
       <r>    8.0568    0.0000 </r>
       <r>    8.2481    0.0000 </r>
       <r>   11.9720    0.0000 </r>
       <r>   13.3260    0.0000 </r>
      </set>
      <set comment="kpoint 83">
       <r>   -2.2477    1.0000 </r>
       <r>   -1.7541    1.0000 </r>
       <r>    1.6611    1.0000 </r>
       <r>    2.3224    1.0000 </r>
       <r>    8.3361    0.0000 </r>
       <r>    9.5054    0.0000 </r>
       <r>   11.6816    0.0000 </r>
       <r>   15.4629    0.0000 </r>
      </set>
      <set comment="kpoint 84">
       <r>   -2.3643    1.0000 </r>
       <r>   -1.6008    1.0000 </r>
       <r>    1.6808    1.0000 </r>
       <r>    2.1424    1.0000 </r>
       <r>    9.6419    0.0000 </r>
       <r>    9.6538    0.0000 </r>
       <r>   10.2882    0.0000 </r>
       <r>   11.4229    0.0000 </r>
      </set>
     </set>
    </set>
   </array>
  </eigenvalues>
  <separator name="orbital magnetization" >
   <v name="MAGDIPOLOUT">      0.00000000      0.00000000      0.00000000</v>
  </separator>
  <dos>
   <i name="efermi">      5.63591926 </i>
   <total>
    <array>
     <dimension dim="1">gridpoints</dimension>
     <dimension dim="2">spin</dimension>
     <field>energy</field>
     <field>total</field>
     <field>integrated</field>
     <set>
      <set comment="spin 1">
       <r>    -8.1986     0.0000     0.0000 </r>
       <r>    -8.1064     0.0000     0.0000 </r>
       <r>    -8.0142     0.0000     0.0000 </r>
       <r>    -7.9220     0.0000     0.0000 </r>
       <r>    -7.8298     0.0000     0.0000 </r>
       <r>    -7.7376     0.0000     0.0000 </r>
       <r>    -7.6454     0.0000     0.0000 </r>
       <r>    -7.5532     0.0000     0.0000 </r>
       <r>    -7.4610     0.0000     0.0000 </r>
       <r>    -7.3688     0.0000     0.0000 </r>
       <r>    -7.2766     0.0000     0.0000 </r>
       <r>    -7.1845     0.0000     0.0000 </r>
       <r>    -7.0923     0.0000     0.0000 </r>
       <r>    -7.0001     0.0000     0.0000 </r>
       <r>    -6.9079     0.0000     0.0000 </r>
       <r>    -6.8157     0.0000     0.0000 </r>
       <r>    -6.7235     0.0000     0.0000 </r>
       <r>    -6.6313     0.0000     0.0000 </r>
       <r>    -6.5391     0.0000     0.0000 </r>
       <r>    -6.4469     0.0000     0.0000 </r>
       <r>    -6.3547     0.0000     0.0000 </r>
       <r>    -6.2625     0.0000     0.0000 </r>
       <r>    -6.1703     0.0147     0.0001 </r>
       <r>    -6.0782     0.1034     0.0070 </r>
       <r>    -5.9860     0.1598     0.0191 </r>
       <r>    -5.8938     0.1852     0.0352 </r>
       <r>    -5.8016     0.2189     0.0538 </r>
       <r>    -5.7094     0.2506     0.0756 </r>
       <r>    -5.6172     0.2713     0.0996 </r>
       <r>    -5.5250     0.2936     0.1256 </r>
       <r>    -5.4328     0.3203     0.1539 </r>
       <r>    -5.3406     0.3432     0.1846 </r>
       <r>    -5.2484     0.3614     0.2170 </r>
       <r>    -5.1562     0.3819     0.2513 </r>
       <r>    -5.0640     0.4041     0.2875 </r>
       <r>    -4.9719     0.4279     0.3258 </r>
       <r>    -4.8797     0.4479     0.3662 </r>
       <r>    -4.7875     0.4680     0.4085 </r>
       <r>    -4.6953     0.4909     0.4526 </r>
       <r>    -4.6031     0.5151     0.4990 </r>
       <r>    -4.5109     0.5413     0.5477 </r>
       <r>    -4.4187     0.5690     0.5989 </r>
       <r>    -4.3265     0.5987     0.6526 </r>
       <r>    -4.2343     0.6333     0.7094 </r>
       <r>    -4.1421     0.6796     0.7698 </r>
       <r>    -4.0499     0.7375     0.8350 </r>
       <r>    -3.9578     0.8678     0.9082 </r>
       <r>    -3.8656     0.8647     0.9899 </r>
       <r>    -3.7734     0.8999     1.0751 </r>
       <r>    -3.6812     0.8432     1.1548 </r>
       <r>    -3.5890     0.8169     1.2315 </r>
       <r>    -3.4968     0.7821     1.3053 </r>
       <r>    -3.4046     0.7416     1.3757 </r>
       <r>    -3.3124     0.7289     1.4436 </r>
       <r>    -3.2202     0.6963     1.5094 </r>
       <r>    -3.1280     0.6490     1.5713 </r>
       <r>    -3.0358     0.6182     1.6297 </r>
       <r>    -2.9436     0.5882     1.6852 </r>
       <r>    -2.8515     0.5605     1.7382 </r>
       <r>    -2.7593     0.5269     1.7884 </r>
       <r>    -2.6671     0.4970     1.8354 </r>
       <r>    -2.5749     0.4771     1.8807 </r>
       <r>    -2.4827     0.4286     1.9223 </r>
       <r>    -2.3905     0.3538     1.9587 </r>
       <r>    -2.2983     0.2268     1.9899 </r>
       <r>    -2.2061     0.0254     1.9995 </r>
       <r>    -2.1139     0.0000     2.0000 </r>
       <r>    -2.0217     0.0100     2.0002 </r>
       <r>    -1.9295     0.0398     2.0024 </r>
       <r>    -1.8373     0.1080     2.0091 </r>
       <r>    -1.7452     0.2032     2.0228 </r>
       <r>    -1.6530     0.3978     2.0507 </r>
       <r>    -1.5608     0.4320     2.0921 </r>
       <r>    -1.4686     0.4762     2.1329 </r>
       <r>    -1.3764     0.5295     2.1794 </r>
       <r>    -1.2842     0.6199     2.2319 </r>
       <r>    -1.1920     0.8018     2.2934 </r>
       <r>    -1.0998     1.4228     2.3914 </r>
       <r>    -1.0076     1.5316     2.5610 </r>
       <r>    -0.9154     1.0992     2.6781 </r>
       <r>    -0.8232     0.8931     2.7690 </r>
       <r>    -0.7311     0.7893     2.8461 </r>
       <r>    -0.6389     0.7225     2.9156 </r>
       <r>    -0.5467     0.6669     2.9796 </r>
       <r>    -0.4545     0.6161     3.0388 </r>
       <r>    -0.3623     0.5674     3.0933 </r>
       <r>    -0.2701     0.5245     3.1436 </r>
       <r>    -0.1779     0.4876     3.1900 </r>
       <r>    -0.0857     0.4652     3.2339 </r>
       <r>     0.0065     0.4439     3.2758 </r>
       <r>     0.0987     0.4222     3.3158 </r>
       <r>     0.1909     0.4000     3.3537 </r>
       <r>     0.2831     0.3785     3.3896 </r>
       <r>     0.3752     0.3539     3.4235 </r>
       <r>     0.4674     0.3283     3.4547 </r>
       <r>     0.5596     0.3146     3.4843 </r>
       <r>     0.6518     0.3031     3.5127 </r>
       <r>     0.7440     0.2917     3.5401 </r>
       <r>     0.8362     0.2805     3.5665 </r>
       <r>     0.9284     0.2681     3.5918 </r>
       <r>     1.0206     0.2531     3.6159 </r>
       <r>     1.1128     0.2374     3.6385 </r>
       <r>     1.2050     0.2205     3.6596 </r>
       <r>     1.2972     0.2078     3.6793 </r>
       <r>     1.3894     0.4734     3.7020 </r>
       <r>     1.4815     0.7067     3.7561 </r>
       <r>     1.5737     1.1839     3.8416 </r>
       <r>     1.6659     1.5757     3.9659 </r>
       <r>     1.7581     1.1471     4.0860 </r>
       <r>     1.8503     1.0771     4.1879 </r>
       <r>     1.9425     1.0635     4.2867 </r>
       <r>     2.0347     1.0199     4.3856 </r>
       <r>     2.1269     0.9652     4.4795 </r>
       <r>     2.2191     1.0414     4.5742 </r>
       <r>     2.3113     1.1458     4.6751 </r>
       <r>     2.4035     1.0938     4.7751 </r>
       <r>     2.4956     1.1279     4.8776 </r>
       <r>     2.5878     1.2236     4.9872 </r>
       <r>     2.6800     1.3203     5.1077 </r>
       <r>     2.7722     1.4191     5.2322 </r>
       <r>     2.8644     1.5735     5.3753 </r>
       <r>     2.9566     1.6585     5.5204 </r>
       <r>     3.0488     1.5111     5.6636 </r>
       <r>     3.1410     1.4806     5.8015 </r>
       <r>     3.2332     1.4713     5.9374 </r>
       <r>     3.3254     1.4508     6.0722 </r>
       <r>     3.4176     1.4137     6.2043 </r>
       <r>     3.5098     1.3683     6.3326 </r>
       <r>     3.6019     1.3521     6.4578 </r>
       <r>     3.6941     1.3646     6.5829 </r>
       <r>     3.7863     1.3411     6.7077 </r>
       <r>     3.8785     1.3005     6.8296 </r>
       <r>     3.9707     1.2842     6.9487 </r>
       <r>     4.0629     1.2762     7.0665 </r>
       <r>     4.1551     1.2583     7.1837 </r>
       <r>     4.2473     1.2328     7.2982 </r>
       <r>     4.3395     1.2147     7.4107 </r>
       <r>     4.4317     1.0425     7.5165 </r>
       <r>     4.5239     0.8095     7.6015 </r>
       <r>     4.6161     0.7011     7.6710 </r>
       <r>     4.7082     0.5972     7.7308 </r>
       <r>     4.8004     0.5257     7.7824 </r>
       <r>     4.8926     0.4622     7.8279 </r>
       <r>     4.9848     0.4171     7.8690 </r>
       <r>     5.0770     0.3554     7.9045 </r>
       <r>     5.1692     0.2957     7.9345 </r>
       <r>     5.2614     0.2379     7.9592 </r>
       <r>     5.3536     0.1699     7.9779 </r>
       <r>     5.4458     0.1243     7.9913 </r>
       <r>     5.5380     0.0259     7.9993 </r>
       <r>     5.6302     0.0000     8.0000 </r>
       <r>     5.7223     0.0000     8.0000 </r>
       <r>     5.8145     0.0000     8.0000 </r>
       <r>     5.9067     0.0000     8.0000 </r>
       <r>     5.9989     0.0000     8.0000 </r>
       <r>     6.0911     0.0000     8.0000 </r>
       <r>     6.1833     0.0000     8.0000 </r>
       <r>     6.2755     0.0164     8.0001 </r>
       <r>     6.3677     0.1042     8.0060 </r>
       <r>     6.4599     0.1697     8.0184 </r>
       <r>     6.5521     0.2444     8.0376 </r>
       <r>     6.6443     0.3150     8.0634 </r>
       <r>     6.7365     0.3884     8.0958 </r>
       <r>     6.8286     0.4675     8.1352 </r>
       <r>     6.9208     0.5384     8.1818 </r>
       <r>     7.0130     0.5711     8.2332 </r>
       <r>     7.1052     0.6135     8.2873 </r>
       <r>     7.1974     0.6820     8.3469 </r>
       <r>     7.2896     0.7634     8.4134 </r>
       <r>     7.3818     0.8580     8.4881 </r>
       <r>     7.4740     0.9676     8.5721 </r>
       <r>     7.5662     1.0888     8.6669 </r>
       <r>     7.6584     1.2757     8.7751 </r>
       <r>     7.7506     1.5684     8.9069 </r>
       <r>     7.8428     1.7047     9.0584 </r>
       <r>     7.9349     1.7684     9.2188 </r>
       <r>     8.0271     1.9980     9.3924 </r>
       <r>     8.1193     1.7587     9.5746 </r>
       <r>     8.2115     1.4316     9.7233 </r>
       <r>     8.3037     1.2025     9.8440 </r>
       <r>     8.3959     1.1617     9.9518 </r>
       <r>     8.4881     1.1268    10.0579 </r>
       <r>     8.5803     1.0186    10.1573 </r>
       <r>     8.6725     0.8375    10.2440 </r>
       <r>     8.7647     0.8474    10.3295 </r>
       <r>     8.8569     1.1085    10.4148 </r>
       <r>     8.9490     1.9711    10.5609 </r>
       <r>     9.0412     2.0753    10.7600 </r>
       <r>     9.1334     1.8645    10.9407 </r>
       <r>     9.2256     2.0820    11.1241 </r>
       <r>     9.3178     2.0628    11.3170 </r>
       <r>     9.4100     1.8594    11.5007 </r>
       <r>     9.5022     1.5754    11.6584 </r>
       <r>     9.5944     1.4467    11.7963 </r>
       <r>     9.6866     1.3433    11.9315 </r>
       <r>     9.7788     1.1557    12.0471 </r>
       <r>     9.8710     1.0471    12.1477 </r>
       <r>     9.9632     0.9907    12.2415 </r>
       <r>    10.0553     1.2341    12.3405 </r>
       <r>    10.1475     1.2461    12.4555 </r>
       <r>    10.2397     1.0646    12.5628 </r>
       <r>    10.3319     0.9851    12.6565 </r>
       <r>    10.4241     0.9977    12.7480 </r>
       <r>    10.5163     0.9878    12.8394 </r>
       <r>    10.6085     1.1300    12.9356 </r>
       <r>    10.7007     1.1499    13.0411 </r>
       <r>    10.7929     1.0926    13.1446 </r>
       <r>    10.8851     1.0698    13.2436 </r>
       <r>    10.9773     1.1504    13.3457 </r>
       <r>    11.0695     1.2472    13.4556 </r>
       <r>    11.1616     1.2482    13.5757 </r>
       <r>    11.2538     1.1536    13.6870 </r>
       <r>    11.3460     1.0063    13.7868 </r>
       <r>    11.4382     0.9226    13.8743 </r>
       <r>    11.5304     0.9093    13.9594 </r>
       <r>    11.6226     0.8729    14.0414 </r>
       <r>    11.7148     0.9057    14.1220 </r>
       <r>    11.8070     0.8822    14.2078 </r>
       <r>    11.8992     0.8360    14.2870 </r>
       <r>    11.9914     0.7971    14.3622 </r>
       <r>    12.0836     0.7880    14.4349 </r>
       <r>    12.1757     0.8283    14.5089 </r>
       <r>    12.2679     0.9289    14.5895 </r>
       <r>    12.3601     0.9948    14.6783 </r>
       <r>    12.4523     1.0458    14.7724 </r>
       <r>    12.5445     1.1474    14.8730 </r>
       <r>    12.6367     1.1635    14.9820 </r>
       <r>    12.7289     0.9620    15.0806 </r>
       <r>    12.8211     0.8065    15.1615 </r>
       <r>    12.9133     0.7435    15.2320 </r>
       <r>    13.0055     0.7287    15.2999 </r>
       <r>    13.0977     0.7015    15.3659 </r>
       <r>    13.1899     0.6681    15.4292 </r>
       <r>    13.2820     0.6641    15.4900 </r>
       <r>    13.3742     0.7737    15.5560 </r>
       <r>    13.4664     0.6363    15.6231 </r>
       <r>    13.5586     0.4558    15.6739 </r>
       <r>    13.6508     0.3782    15.7107 </r>
       <r>    13.7430     0.3665    15.7449 </r>
       <r>    13.8352     0.3149    15.7774 </r>
       <r>    13.9274     0.2650    15.8042 </r>
       <r>    14.0196     0.2085    15.8258 </r>
       <r>    14.1118     0.1854    15.8438 </r>
       <r>    14.2040     0.1677    15.8601 </r>
       <r>    14.2962     0.1512    15.8748 </r>
       <r>    14.3883     0.1358    15.8880 </r>
       <r>    14.4805     0.1215    15.8998 </r>
       <r>    14.5727     0.1084    15.9104 </r>
       <r>    14.6649     0.0963    15.9199 </r>
       <r>    14.7571     0.0854    15.9282 </r>
       <r>    14.8493     0.0756    15.9356 </r>
       <r>    14.9415     0.0669    15.9422 </r>
       <r>    15.0337     0.0624    15.9481 </r>
       <r>    15.1259     0.0914    15.9551 </r>
       <r>    15.2181     0.0420    15.9595 </r>
       <r>    15.3103     0.0347    15.9630 </r>
       <r>    15.4024     0.0322    15.9661 </r>
       <r>    15.4946     0.0300    15.9689 </r>
       <r>    15.5868     0.0283    15.9716 </r>
       <r>    15.6790     0.0266    15.9741 </r>
       <r>    15.7712     0.0250    15.9765 </r>
       <r>    15.8634     0.0235    15.9788 </r>
       <r>    15.9556     0.0220    15.9809 </r>
       <r>    16.0478     0.0206    15.9828 </r>
       <r>    16.1400     0.0192    15.9846 </r>
       <r>    16.2322     0.0182    15.9864 </r>
       <r>    16.3244     0.0173    15.9880 </r>
       <r>    16.4166     0.0164    15.9896 </r>
       <r>    16.5087     0.0155    15.9910 </r>
       <r>    16.6009     0.0146    15.9924 </r>
       <r>    16.6931     0.0137    15.9937 </r>
       <r>    16.7853     0.0128    15.9949 </r>
       <r>    16.8775     0.0119    15.9961 </r>
       <r>    16.9697     0.0110    15.9971 </r>
       <r>    17.0619     0.0101    15.9981 </r>
       <r>    17.1541     0.0093    15.9990 </r>
       <r>    17.2463     0.0048    15.9996 </r>
       <r>    17.3385     0.0017    15.9999 </r>
       <r>    17.4307     0.0001    16.0000 </r>
       <r>    17.5229     0.0000    16.0000 </r>
       <r>    17.6150     0.0000    16.0000 </r>
       <r>    17.7072     0.0000    16.0000 </r>
       <r>    17.7994     0.0000    16.0000 </r>
       <r>    17.8916     0.0000    16.0000 </r>
       <r>    17.9838     0.0000    16.0000 </r>
       <r>    18.0760     0.0000    16.0000 </r>
       <r>    18.1682     0.0000    16.0000 </r>
       <r>    18.2604     0.0000    16.0000 </r>
       <r>    18.3526     0.0000    16.0000 </r>
       <r>    18.4448     0.0000    16.0000 </r>
       <r>    18.5370     0.0000    16.0000 </r>
       <r>    18.6291     0.0000    16.0000 </r>
       <r>    18.7213     0.0000    16.0000 </r>
       <r>    18.8135     0.0000    16.0000 </r>
       <r>    18.9057     0.0000    16.0000 </r>
       <r>    18.9979     0.0000    16.0000 </r>
       <r>    19.0901     0.0000    16.0000 </r>
       <r>    19.1823     0.0000    16.0000 </r>
       <r>    19.2745     0.0000    16.0000 </r>
       <r>    19.3667     0.0000    16.0000 </r>
       <r>    19.4589     0.0000    16.0000 </r>
      </set>
     </set>
    </array>
   </total>
  </dos>
 </calculation>
 <structure name="finalpos" >
  <crystal>
   <varray name="basis" >
    <v>       0.00000000       2.73421540       2.73421540 </v>
    <v>       2.73421540       0.00000000       2.73421540 </v>
    <v>       2.73421540       2.73421540      -0.00000000 </v>
   </varray>
   <i name="volume">     40.88162679 </i>
   <varray name="rec_basis" >
    <v>      -0.18286782       0.18286782       0.18286782 </v>
    <v>       0.18286782      -0.18286782       0.18286782 </v>
    <v>       0.18286782       0.18286782      -0.18286782 </v>
   </varray>
  </crystal>
  <varray name="positions" >
   <v>       0.00000000       0.00000000       0.00000000 </v>
   <v>       0.25000000       0.25000000       0.25000000 </v>
  </varray>
 </structure>
</modeling>
