unknown system                          
           1
     0.000000    2.724746    2.724746
     2.724746    0.000000    2.724746
     2.724746    2.724746   -0.000000
   Si
   2
Direct configuration=     1
   0.00000000  0.00000000  0.00000000
   0.25000000  0.25000000  0.25000000
unknown system                          
           1
     0.000000    2.735545    2.735545
     2.735545    0.000000    2.735545
     2.735545    2.735545   -0.000000
   Si
   2
Direct configuration=     2
   0.00000000  0.00000000  0.00000000
   0.25000000  0.25000000  0.25000000
unknown system                          
           1
     0.000000    2.734215    2.734215
     2.734215    0.000000    2.734215
     2.734215    2.734215   -0.000000
   Si
   2
Direct configuration=     3
   0.00000000  0.00000000  0.00000000
   0.25000000  0.25000000  0.25000000
unknown system                          
           1
     0.000000    2.734215    2.734215
     2.734215    0.000000    2.734215
     2.734215    2.734215   -0.000000
   Si
   2
Direct configuration=     4
   0.00000000  0.00000000  0.00000000
   0.25000000  0.25000000  0.25000000
